<?xml version="1.0" encoding="UTF-8"?>

<!-- generated on Wed Aug 14 10:59:26 2019 by Eclipse SUMO Version 1.2.0
<configuration xmlns:xsi="http://www.w3.org/2001/XMLSchema-instance" xsi:noNamespaceSchemaLocation="http://sumo.dlr.de/xsd/sumoConfiguration.xsd">

    <input>
        <net-file value="Town01.net.xml"/>
        <route-files value="trips.trips.xml"/>
    </input>

    <output>
        <netstate-dump value="test.log"/>
        <fcd-output value="Town01_Car200.log"/>
    </output>

    <time>
        <begin value="0"/>
        <end value="10000"/>
    </time>

</configuration>
-->

<fcd-export xmlns:xsi="http://www.w3.org/2001/XMLSchema-instance" xsi:noNamespaceSchemaLocation="http://sumo.dlr.de/xsd/fcd_file.xsd">
    <timestep time="0.00">
        <vehicle id="0" x="5.14" y="3.63" angle="288.52" type="DEFAULT_VEHTYPE" speed="0.00" pos="5.10" lane="-20.0.00_0" slope="0.00"/>
    </timestep>
    <timestep time="1.00">
        <vehicle id="0" x="3.76" y="5.25" angle="306.60" type="DEFAULT_VEHTYPE" speed="2.14" pos="7.24" lane="-20.0.00_0" slope="0.00"/>
        <vehicle id="1" x="158.09" y="287.51" angle="0.08" type="DEFAULT_VEHTYPE" speed="0.00" pos="5.10" lane="25.0.00_0" slope="0.00"/>
    </timestep>
    <timestep time="2.00">
        <vehicle id="0" x="2.35" y="8.48" angle="332.08" type="DEFAULT_VEHTYPE" speed="3.55" pos="10.79" lane="-20.0.00_0" slope="0.00"/>
        <vehicle id="1" x="158.09" y="289.71" angle="0.08" type="DEFAULT_VEHTYPE" speed="2.20" pos="7.30" lane="25.0.00_0" slope="0.00"/>
        <vehicle id="2" x="334.95" y="312.72" angle="180.03" type="DEFAULT_VEHTYPE" speed="0.00" pos="5.10" lane="-16.0.00_0" slope="0.00"/>
    </timestep>
    <timestep time="3.00">
        <vehicle id="0" x="2.07" y="13.55" angle="357.07" type="DEFAULT_VEHTYPE" speed="5.09" pos="2.39" lane="15.0.00_0" slope="0.00"/>
        <vehicle id="1" x="158.10" y="293.93" angle="0.08" type="DEFAULT_VEHTYPE" speed="4.22" pos="11.52" lane="25.0.00_0" slope="0.00"/>
        <vehicle id="2" x="334.95" y="310.93" angle="180.03" type="DEFAULT_VEHTYPE" speed="1.79" pos="6.89" lane="-16.0.00_0" slope="0.00"/>
        <vehicle id="3" x="391.10" y="323.72" angle="123.67" type="DEFAULT_VEHTYPE" speed="0.00" pos="5.10" lane="-11.0.00_0" slope="0.00"/>
    </timestep>
    <timestep time="4.00">
        <vehicle id="0" x="2.07" y="20.07" angle="0.00" type="DEFAULT_VEHTYPE" speed="6.52" pos="8.91" lane="15.0.00_0" slope="0.00"/>
        <vehicle id="1" x="158.11" y="300.73" angle="0.08" type="DEFAULT_VEHTYPE" speed="6.80" pos="18.32" lane="25.0.00_0" slope="0.00"/>
        <vehicle id="2" x="334.94" y="307.04" angle="180.03" type="DEFAULT_VEHTYPE" speed="3.90" pos="10.78" lane="-16.0.00_0" slope="0.00"/>
        <vehicle id="3" x="392.15" y="321.51" angle="144.07" type="DEFAULT_VEHTYPE" speed="2.47" pos="7.57" lane="-11.0.00_0" slope="0.00"/>
        <vehicle id="4" x="379.55" y="330.59" angle="270.03" type="DEFAULT_VEHTYPE" speed="0.00" pos="5.10" lane="-0.0.00_0" slope="0.00"/>
    </timestep>
    <timestep time="5.00">
        <vehicle id="0" x="2.07" y="29.19" angle="0.00" type="DEFAULT_VEHTYPE" speed="9.12" pos="18.03" lane="15.0.00_0" slope="0.00"/>
        <vehicle id="1" x="158.12" y="309.71" angle="0.08" type="DEFAULT_VEHTYPE" speed="8.98" pos="27.30" lane="25.0.00_0" slope="0.00"/>
        <vehicle id="2" x="334.94" y="301.71" angle="180.03" type="DEFAULT_VEHTYPE" speed="5.32" pos="16.11" lane="-16.0.00_0" slope="0.00"/>
        <vehicle id="3" x="392.44" y="317.65" angle="172.51" type="DEFAULT_VEHTYPE" speed="3.99" pos="1.11" lane="8.0.00_0" slope="0.00"/>
        <vehicle id="4" x="377.97" y="330.59" angle="270.03" type="DEFAULT_VEHTYPE" speed="1.58" pos="6.68" lane="-0.0.00_0" slope="0.00"/>
        <vehicle id="5" x="74.37" y="2.03" angle="270.03" type="DEFAULT_VEHTYPE" speed="0.00" pos="5.10" lane="5.0.00_0" slope="0.00"/>
    </timestep>
    <timestep time="6.00">
        <vehicle id="0" x="2.07" y="40.48" angle="0.00" type="DEFAULT_VEHTYPE" speed="11.29" pos="29.32" lane="15.0.00_0" slope="0.00"/>
        <vehicle id="1" x="158.13" y="315.34" angle="0.08" type="DEFAULT_VEHTYPE" speed="5.63" pos="32.93" lane="25.0.00_0" slope="0.00"/>
        <vehicle id="2" x="334.94" y="294.09" angle="180.03" type="DEFAULT_VEHTYPE" speed="7.62" pos="23.73" lane="-16.0.00_0" slope="0.00"/>
        <vehicle id="3" x="392.43" y="311.24" angle="180.11" type="DEFAULT_VEHTYPE" speed="6.40" pos="7.52" lane="8.0.00_0" slope="0.00"/>
        <vehicle id="4" x="374.01" y="330.60" angle="270.03" type="DEFAULT_VEHTYPE" speed="3.96" pos="10.64" lane="-0.0.00_0" slope="0.00"/>
        <vehicle id="5" x="73.01" y="2.03" angle="270.03" type="DEFAULT_VEHTYPE" speed="1.36" pos="6.46" lane="5.0.00_0" slope="0.00"/>
        <vehicle id="6" x="353.39" y="326.61" angle="90.03" type="DEFAULT_VEHTYPE" speed="0.00" pos="5.10" lane="0.0.00_0" slope="0.00"/>
    </timestep>
    <timestep time="7.00">
        <vehicle id="0" x="2.08" y="54.20" angle="0.06" type="DEFAULT_VEHTYPE" speed="13.72" pos="43.04" lane="15.0.00_0" slope="0.00"/>
        <vehicle id="1" x="159.36" y="322.61" angle="14.54" type="DEFAULT_VEHTYPE" speed="7.51" pos="4.95" lane=":26_2_0" slope="0.00"/>
        <vehicle id="2" x="334.93" y="285.03" angle="180.03" type="DEFAULT_VEHTYPE" speed="9.07" pos="32.79" lane="-16.0.00_0" slope="0.00"/>
        <vehicle id="3" x="392.42" y="303.38" angle="180.11" type="DEFAULT_VEHTYPE" speed="7.86" pos="15.38" lane="8.0.00_0" slope="0.00"/>
        <vehicle id="4" x="368.45" y="330.60" angle="270.03" type="DEFAULT_VEHTYPE" speed="5.57" pos="16.20" lane="-0.0.00_0" slope="0.00"/>
        <vehicle id="5" x="70.15" y="2.04" angle="270.03" type="DEFAULT_VEHTYPE" speed="2.86" pos="9.32" lane="5.0.00_0" slope="0.00"/>
        <vehicle id="6" x="355.14" y="326.61" angle="90.03" type="DEFAULT_VEHTYPE" speed="1.75" pos="6.85" lane="0.0.00_0" slope="0.00"/>
        <vehicle id="7" x="-1.97" y="313.55" angle="180.00" type="DEFAULT_VEHTYPE" speed="0.00" pos="5.10" lane="-15.0.00_0" slope="0.00"/>
    </timestep>
    <timestep time="8.00">
        <vehicle id="0" x="2.08" y="68.36" angle="0.00" type="DEFAULT_VEHTYPE" speed="14.16" pos="57.20" lane="15.0.00_0" slope="0.00"/>
        <vehicle id="1" x="165.54" y="326.33" angle="69.60" type="DEFAULT_VEHTYPE" speed="7.58" pos="12.53" lane=":26_2_0" slope="0.00"/>
        <vehicle id="2" x="333.89" y="277.48" angle="192.13" type="DEFAULT_VEHTYPE" speed="7.72" pos="4.89" lane=":111_0_0" slope="0.00"/>
        <vehicle id="3" x="392.41" y="293.09" angle="180.06" type="DEFAULT_VEHTYPE" speed="10.29" pos="25.67" lane="8.0.00_0" slope="0.00"/>
        <vehicle id="4" x="360.63" y="330.60" angle="270.03" type="DEFAULT_VEHTYPE" speed="7.82" pos="24.02" lane="-0.0.00_0" slope="0.00"/>
        <vehicle id="5" x="65.83" y="2.04" angle="270.03" type="DEFAULT_VEHTYPE" speed="4.32" pos="13.64" lane="5.0.00_0" slope="0.00"/>
        <vehicle id="6" x="359.11" y="326.60" angle="90.03" type="DEFAULT_VEHTYPE" speed="3.97" pos="10.82" lane="0.0.00_0" slope="0.00"/>
        <vehicle id="7" x="-1.97" y="311.00" angle="180.00" type="DEFAULT_VEHTYPE" speed="2.55" pos="7.65" lane="-15.0.00_0" slope="0.00"/>
        <vehicle id="8" x="106.55" y="269.11" angle="89.99" type="DEFAULT_VEHTYPE" speed="0.00" pos="5.10" lane="-9.0.00_0" slope="0.00"/>
    </timestep>
    <timestep time="9.00">
        <vehicle id="0" x="2.08" y="82.90" angle="0.00" type="DEFAULT_VEHTYPE" speed="14.54" pos="71.74" lane="15.0.00_0" slope="0.00"/>
        <vehicle id="1" x="172.62" y="326.65" angle="89.27" type="DEFAULT_VEHTYPE" speed="7.10" pos="4.48" lane="1.0.00_0" slope="0.00"/>
        <vehicle id="2" x="328.08" y="273.48" angle="247.07" type="DEFAULT_VEHTYPE" speed="7.46" pos="12.35" lane=":111_0_0" slope="0.00"/>
        <vehicle id="3" x="392.40" y="280.68" angle="180.04" type="DEFAULT_VEHTYPE" speed="12.41" pos="38.08" lane="8.0.00_0" slope="0.00"/>
        <vehicle id="4" x="350.60" y="330.61" angle="270.03" type="DEFAULT_VEHTYPE" speed="10.03" pos="34.05" lane="-0.0.00_0" slope="0.00"/>
        <vehicle id="5" x="58.96" y="2.04" angle="270.03" type="DEFAULT_VEHTYPE" speed="6.87" pos="20.51" lane="5.0.00_0" slope="0.00"/>
        <vehicle id="6" x="364.76" y="326.60" angle="90.03" type="DEFAULT_VEHTYPE" speed="5.65" pos="16.47" lane="0.0.00_0" slope="0.00"/>
        <vehicle id="7" x="-1.97" y="305.92" angle="180.05" type="DEFAULT_VEHTYPE" speed="5.08" pos="12.73" lane="-15.0.00_0" slope="0.00"/>
        <vehicle id="8" x="108.10" y="269.11" angle="89.99" type="DEFAULT_VEHTYPE" speed="1.55" pos="6.65" lane="-9.0.00_0" slope="0.00"/>
        <vehicle id="9" x="139.95" y="273.12" angle="269.99" type="DEFAULT_VEHTYPE" speed="0.00" pos="5.10" lane="9.0.00_0" slope="0.00"/>
    </timestep>
    <timestep time="10.00">
        <vehicle id="0" x="2.08" y="96.50" angle="359.95" type="DEFAULT_VEHTYPE" speed="13.60" pos="85.34" lane="15.0.00_0" slope="0.00"/>
        <vehicle id="1" x="181.97" y="326.65" angle="90.00" type="DEFAULT_VEHTYPE" speed="9.34" pos="13.82" lane="1.0.00_0" slope="0.00"/>
        <vehicle id="10" x="-1.04" y="5.80" angle="169.63" type="DEFAULT_VEHTYPE" speed="0.00" pos="5.10" lane="20.0.00_0" slope="0.00"/>
        <vehicle id="2" x="320.49" y="273.14" angle="269.99" type="DEFAULT_VEHTYPE" speed="7.61" pos="5.20" lane="10.0.00_0" slope="0.00"/>
        <vehicle id="3" x="392.38" y="266.47" angle="180.00" type="DEFAULT_VEHTYPE" speed="14.21" pos="52.29" lane="8.0.00_0" slope="0.00"/>
        <vehicle id="4" x="338.43" y="330.61" angle="270.03" type="DEFAULT_VEHTYPE" speed="12.17" pos="9.86" lane=":43_0_0" slope="0.00"/>
        <vehicle id="5" x="50.03" y="2.05" angle="270.03" type="DEFAULT_VEHTYPE" speed="8.93" pos="29.44" lane="5.0.00_0" slope="0.00"/>
        <vehicle id="6" x="372.47" y="326.60" angle="90.03" type="DEFAULT_VEHTYPE" speed="7.71" pos="24.18" lane="0.0.00_0" slope="0.00"/>
        <vehicle id="7" x="-1.98" y="298.84" angle="180.00" type="DEFAULT_VEHTYPE" speed="7.07" pos="19.81" lane="-15.0.00_0" slope="0.00"/>
        <vehicle id="8" x="111.29" y="269.11" angle="89.99" type="DEFAULT_VEHTYPE" speed="3.19" pos="9.84" lane="-9.0.00_0" slope="0.00"/>
        <vehicle id="9" x="137.43" y="273.12" angle="269.99" type="DEFAULT_VEHTYPE" speed="2.52" pos="7.62" lane="9.0.00_0" slope="0.00"/>
    </timestep>
    <timestep time="11.00">
        <vehicle id="0" x="2.07" y="109.98" angle="0.00" type="DEFAULT_VEHTYPE" speed="13.48" pos="98.82" lane="15.0.00_0" slope="0.00"/>
        <vehicle id="1" x="193.79" y="326.65" angle="90.00" type="DEFAULT_VEHTYPE" speed="11.82" pos="25.64" lane="1.0.00_0" slope="0.00"/>
        <vehicle id="10" x="-0.46" y="4.53" angle="164.02" type="DEFAULT_VEHTYPE" speed="1.40" pos="6.50" lane="20.0.00_0" slope="0.00"/>
        <vehicle id="11" x="92.44" y="287.56" angle="359.98" type="DEFAULT_VEHTYPE" speed="0.00" pos="5.10" lane="21.0.00_0" slope="0.00"/>
        <vehicle id="2" x="311.44" y="273.14" angle="269.99" type="DEFAULT_VEHTYPE" speed="9.05" pos="14.25" lane="10.0.00_0" slope="0.00"/>
        <vehicle id="3" x="392.36" y="251.48" angle="180.04" type="DEFAULT_VEHTYPE" speed="14.99" pos="67.28" lane="8.0.00_0" slope="0.00"/>
        <vehicle id="4" x="325.04" y="330.62" angle="270.02" type="DEFAULT_VEHTYPE" speed="13.38" pos="0.65" lane="-1.0.00_0" slope="0.00"/>
        <vehicle id="5" x="38.69" y="2.05" angle="270.03" type="DEFAULT_VEHTYPE" speed="11.34" pos="40.78" lane="5.0.00_0" slope="0.00"/>
        <vehicle id="6" x="381.97" y="326.59" angle="90.03" type="DEFAULT_VEHTYPE" speed="9.50" pos="33.68" lane="0.0.00_0" slope="0.00"/>
        <vehicle id="7" x="-1.98" y="289.59" angle="180.00" type="DEFAULT_VEHTYPE" speed="9.25" pos="29.06" lane="-15.0.00_0" slope="0.00"/>
        <vehicle id="8" x="116.36" y="269.11" angle="89.99" type="DEFAULT_VEHTYPE" speed="5.06" pos="14.91" lane="-9.0.00_0" slope="0.00"/>
        <vehicle id="9" x="133.28" y="273.12" angle="269.99" type="DEFAULT_VEHTYPE" speed="4.15" pos="11.77" lane="9.0.00_0" slope="0.00"/>
    </timestep>
    <timestep time="12.00">
        <vehicle id="0" x="2.06" y="124.08" angle="0.00" type="DEFAULT_VEHTYPE" speed="14.10" pos="112.92" lane="15.0.00_0" slope="0.00"/>
        <vehicle id="1" x="205.56" y="326.65" angle="90.00" type="DEFAULT_VEHTYPE" speed="11.77" pos="37.41" lane="1.0.00_0" slope="0.00"/>
        <vehicle id="10" x="1.44" y="1.68" angle="149.22" type="DEFAULT_VEHTYPE" speed="3.44" pos="9.94" lane="20.0.00_0" slope="0.00"/>
        <vehicle id="11" x="92.44" y="288.90" angle="359.98" type="DEFAULT_VEHTYPE" speed="1.34" pos="6.44" lane="21.0.00_0" slope="0.00"/>
        <vehicle id="12" x="379.55" y="330.59" angle="270.03" type="DEFAULT_VEHTYPE" speed="0.00" pos="5.10" lane="-0.0.00_0" slope="0.00"/>
        <vehicle id="2" x="299.84" y="273.14" angle="269.99" type="DEFAULT_VEHTYPE" speed="11.59" pos="25.85" lane="10.0.00_0" slope="0.00"/>
        <vehicle id="3" x="392.35" y="237.13" angle="180.00" type="DEFAULT_VEHTYPE" speed="14.35" pos="81.63" lane="8.0.00_0" slope="0.00"/>
        <vehicle id="4" x="311.60" y="330.63" angle="270.00" type="DEFAULT_VEHTYPE" speed="13.44" pos="14.09" lane="-1.0.00_0" slope="0.00"/>
        <vehicle id="5" x="27.26" y="2.06" angle="270.03" type="DEFAULT_VEHTYPE" speed="11.43" pos="52.21" lane="5.0.00_0" slope="0.00"/>
        <vehicle id="6" x="391.56" y="322.97" angle="130.82" type="DEFAULT_VEHTYPE" speed="10.96" pos="5.98" lane="-11.0.00_0" slope="0.00"/>
        <vehicle id="7" x="-1.99" y="277.93" angle="180.11" type="DEFAULT_VEHTYPE" speed="11.66" pos="40.72" lane="-15.0.00_0" slope="0.00"/>
        <vehicle id="8" x="122.93" y="269.11" angle="89.99" type="DEFAULT_VEHTYPE" speed="6.58" pos="21.48" lane="-9.0.00_0" slope="0.00"/>
        <vehicle id="9" x="127.58" y="273.12" angle="269.99" type="DEFAULT_VEHTYPE" speed="5.70" pos="17.47" lane="9.0.00_0" slope="0.00"/>
    </timestep>
    <timestep time="13.00">
        <vehicle id="0" x="2.05" y="137.56" angle="359.89" type="DEFAULT_VEHTYPE" speed="13.47" pos="126.40" lane="15.0.00_0" slope="0.00"/>
        <vehicle id="1" x="217.41" y="326.65" angle="90.00" type="DEFAULT_VEHTYPE" speed="11.86" pos="49.27" lane="1.0.00_0" slope="0.00"/>
        <vehicle id="10" x="5.58" y="-1.16" angle="124.24" type="DEFAULT_VEHTYPE" speed="5.09" pos="15.03" lane="20.0.00_0" slope="0.00"/>
        <vehicle id="11" x="92.44" y="292.30" angle="359.98" type="DEFAULT_VEHTYPE" speed="3.40" pos="9.84" lane="21.0.00_0" slope="0.00"/>
        <vehicle id="12" x="377.99" y="330.59" angle="270.03" type="DEFAULT_VEHTYPE" speed="1.56" pos="6.66" lane="-0.0.00_0" slope="0.00"/>
        <vehicle id="13" x="338.93" y="287.29" angle="0.03" type="DEFAULT_VEHTYPE" speed="0.00" pos="5.10" lane="16.0.00_0" slope="0.00"/>
        <vehicle id="2" x="286.45" y="273.14" angle="269.99" type="DEFAULT_VEHTYPE" speed="13.40" pos="39.24" lane="10.0.00_0" slope="0.00"/>
        <vehicle id="3" x="392.35" y="223.10" angle="180.00" type="DEFAULT_VEHTYPE" speed="14.03" pos="95.66" lane="8.0.00_0" slope="0.00"/>
        <vehicle id="4" x="298.39" y="330.64" angle="270.11" type="DEFAULT_VEHTYPE" speed="13.22" pos="27.30" lane="-1.0.00_0" slope="0.00"/>
        <vehicle id="5" x="15.89" y="2.07" angle="270.03" type="DEFAULT_VEHTYPE" speed="11.37" pos="63.58" lane="5.0.00_0" slope="0.00"/>
        <vehicle id="6" x="392.43" y="310.20" angle="180.11" type="DEFAULT_VEHTYPE" speed="13.02" pos="8.56" lane="8.0.00_0" slope="0.00"/>
        <vehicle id="7" x="-1.99" y="266.22" angle="180.00" type="DEFAULT_VEHTYPE" speed="11.71" pos="52.43" lane="-15.0.00_0" slope="0.00"/>
        <vehicle id="8" x="131.56" y="269.12" angle="89.99" type="DEFAULT_VEHTYPE" speed="8.62" pos="30.11" lane="-9.0.00_0" slope="0.00"/>
        <vehicle id="9" x="119.35" y="273.11" angle="269.99" type="DEFAULT_VEHTYPE" speed="8.23" pos="25.70" lane="9.0.00_0" slope="0.00"/>
    </timestep>
    <timestep time="14.00">
        <vehicle id="0" x="2.05" y="152.11" angle="0.00" type="DEFAULT_VEHTYPE" speed="14.55" pos="140.95" lane="15.0.00_0" slope="0.00"/>
        <vehicle id="1" x="229.38" y="326.65" angle="90.00" type="DEFAULT_VEHTYPE" speed="11.96" pos="61.23" lane="1.0.00_0" slope="0.00"/>
        <vehicle id="10" x="12.72" y="-1.93" angle="92.13" type="DEFAULT_VEHTYPE" speed="7.23" pos="2.50" lane="-5.0.00_0" slope="0.00"/>
        <vehicle id="11" x="92.44" y="297.29" angle="359.98" type="DEFAULT_VEHTYPE" speed="5.00" pos="14.84" lane="21.0.00_0" slope="0.00"/>
        <vehicle id="12" x="374.72" y="330.60" angle="270.03" type="DEFAULT_VEHTYPE" speed="3.27" pos="9.93" lane="-0.0.00_0" slope="0.00"/>
        <vehicle id="13" x="338.93" y="289.31" angle="0.03" type="DEFAULT_VEHTYPE" speed="2.02" pos="7.12" lane="16.0.00_0" slope="0.00"/>
        <vehicle id="14" x="320.68" y="2.00" angle="270.00" type="DEFAULT_VEHTYPE" speed="0.00" pos="5.10" lane="6.0.00_0" slope="0.00"/>
        <vehicle id="2" x="273.18" y="273.13" angle="269.99" type="DEFAULT_VEHTYPE" speed="13.27" pos="52.51" lane="10.0.00_0" slope="0.00"/>
        <vehicle id="3" x="392.35" y="208.22" angle="180.00" type="DEFAULT_VEHTYPE" speed="14.88" pos="110.54" lane="8.0.00_0" slope="0.00"/>
        <vehicle id="4" x="284.09" y="330.64" angle="270.00" type="DEFAULT_VEHTYPE" speed="14.30" pos="41.60" lane="-1.0.00_0" slope="0.00"/>
        <vehicle id="5" x="5.69" y="3.27" angle="284.21" type="DEFAULT_VEHTYPE" speed="10.45" pos="4.45" lane="-20.0.00_0" slope="0.00"/>
        <vehicle id="6" x="392.41" y="296.00" angle="180.11" type="DEFAULT_VEHTYPE" speed="14.20" pos="22.76" lane="8.0.00_0" slope="0.00"/>
        <vehicle id="7" x="-1.99" y="254.16" angle="180.04" type="DEFAULT_VEHTYPE" speed="12.06" pos="64.49" lane="-15.0.00_0" slope="0.00"/>
        <vehicle id="8" x="142.30" y="269.12" angle="89.99" type="DEFAULT_VEHTYPE" speed="10.74" pos="40.85" lane="-9.0.00_0" slope="0.00"/>
        <vehicle id="9" x="109.90" y="273.11" angle="269.99" type="DEFAULT_VEHTYPE" speed="9.44" pos="35.15" lane="9.0.00_0" slope="0.00"/>
    </timestep>
    <timestep time="15.00">
        <vehicle id="0" x="2.04" y="166.19" angle="0.00" type="DEFAULT_VEHTYPE" speed="14.08" pos="155.03" lane="15.0.00_0" slope="0.00"/>
        <vehicle id="1" x="241.18" y="326.65" angle="90.00" type="DEFAULT_VEHTYPE" speed="11.80" pos="73.03" lane="1.0.00_0" slope="0.00"/>
        <vehicle id="10" x="22.16" y="-1.94" angle="90.03" type="DEFAULT_VEHTYPE" speed="9.44" pos="11.94" lane="-5.0.00_0" slope="0.00"/>
        <vehicle id="11" x="92.43" y="304.15" angle="359.98" type="DEFAULT_VEHTYPE" speed="6.86" pos="21.69" lane="21.0.00_0" slope="0.00"/>
        <vehicle id="12" x="370.13" y="330.60" angle="270.03" type="DEFAULT_VEHTYPE" speed="4.59" pos="14.52" lane="-0.0.00_0" slope="0.00"/>
        <vehicle id="13" x="338.94" y="293.16" angle="0.03" type="DEFAULT_VEHTYPE" speed="3.85" pos="10.97" lane="16.0.00_0" slope="0.00"/>
        <vehicle id="14" x="319.01" y="2.00" angle="270.00" type="DEFAULT_VEHTYPE" speed="1.67" pos="6.77" lane="6.0.00_0" slope="0.00"/>
        <vehicle id="15" x="320.63" y="133.45" angle="270.01" type="DEFAULT_VEHTYPE" speed="0.00" pos="5.10" lane="12.0.00_0" slope="0.00"/>
        <vehicle id="2" x="259.20" y="273.13" angle="269.99" type="DEFAULT_VEHTYPE" speed="13.98" pos="66.49" lane="10.0.00_0" slope="0.00"/>
        <vehicle id="3" x="392.36" y="193.42" angle="180.00" type="DEFAULT_VEHTYPE" speed="14.80" pos="125.34" lane="8.0.00_0" slope="0.00"/>
        <vehicle id="4" x="269.98" y="330.64" angle="270.00" type="DEFAULT_VEHTYPE" speed="14.11" pos="55.71" lane="-1.0.00_0" slope="0.00"/>
        <vehicle id="5" x="2.07" y="12.69" angle="354.60" type="DEFAULT_VEHTYPE" speed="10.57" pos="1.53" lane="15.0.00_0" slope="0.00"/>
        <vehicle id="6" x="392.40" y="282.09" angle="180.00" type="DEFAULT_VEHTYPE" speed="13.91" pos="36.67" lane="8.0.00_0" slope="0.00"/>
        <vehicle id="7" x="-2.00" y="242.09" angle="180.00" type="DEFAULT_VEHTYPE" speed="12.07" pos="76.56" lane="-15.0.00_0" slope="0.00"/>
        <vehicle id="9" x="104.20" y="273.11" angle="269.99" type="DEFAULT_VEHTYPE" speed="5.71" pos="40.85" lane="9.0.00_0" slope="0.00"/>
    </timestep>
    <timestep time="16.00">
        <vehicle id="0" x="2.03" y="180.27" angle="0.00" type="DEFAULT_VEHTYPE" speed="14.07" pos="169.11" lane="15.0.00_0" slope="0.00"/>
        <vehicle id="1" x="253.84" y="326.64" angle="90.00" type="DEFAULT_VEHTYPE" speed="12.67" pos="85.70" lane="1.0.00_0" slope="0.00"/>
        <vehicle id="10" x="33.90" y="-1.94" angle="90.03" type="DEFAULT_VEHTYPE" speed="11.74" pos="23.68" lane="-5.0.00_0" slope="0.00"/>
        <vehicle id="11" x="92.43" y="313.14" angle="359.98" type="DEFAULT_VEHTYPE" speed="9.00" pos="30.69" lane="21.0.00_0" slope="0.00"/>
        <vehicle id="12" x="363.28" y="330.60" angle="270.03" type="DEFAULT_VEHTYPE" speed="6.85" pos="21.37" lane="-0.0.00_0" slope="0.00"/>
        <vehicle id="13" x="338.94" y="299.36" angle="0.03" type="DEFAULT_VEHTYPE" speed="6.19" pos="17.17" lane="16.0.00_0" slope="0.00"/>
        <vehicle id="14" x="314.98" y="2.00" angle="270.00" type="DEFAULT_VEHTYPE" speed="4.03" pos="10.80" lane="6.0.00_0" slope="0.00"/>
        <vehicle id="15" x="318.54" y="133.45" angle="270.01" type="DEFAULT_VEHTYPE" speed="2.09" pos="7.19" lane="12.0.00_0" slope="0.00"/>
        <vehicle id="2" x="246.13" y="273.13" angle="269.99" type="DEFAULT_VEHTYPE" speed="13.07" pos="79.55" lane="10.0.00_0" slope="0.00"/>
        <vehicle id="3" x="392.36" y="179.53" angle="180.00" type="DEFAULT_VEHTYPE" speed="13.89" pos="139.23" lane="8.0.00_0" slope="0.00"/>
        <vehicle id="4" x="255.98" y="330.64" angle="270.00" type="DEFAULT_VEHTYPE" speed="14.00" pos="69.71" lane="-1.0.00_0" slope="0.00"/>
        <vehicle id="5" x="2.07" y="23.40" angle="0.00" type="DEFAULT_VEHTYPE" speed="10.71" pos="12.24" lane="15.0.00_0" slope="0.00"/>
        <vehicle id="6" x="392.38" y="267.69" angle="180.07" type="DEFAULT_VEHTYPE" speed="14.40" pos="51.07" lane="8.0.00_0" slope="0.00"/>
        <vehicle id="7" x="-1.99" y="230.17" angle="179.89" type="DEFAULT_VEHTYPE" speed="11.92" pos="88.48" lane="-15.0.00_0" slope="0.00"/>
        <vehicle id="9" x="96.73" y="272.46" angle="262.47" type="DEFAULT_VEHTYPE" speed="7.51" pos="4.76" lane=":184_3_0" slope="0.00"/>
    </timestep>
    <timestep time="17.00">
        <vehicle id="0" x="2.02" y="194.07" angle="359.89" type="DEFAULT_VEHTYPE" speed="13.80" pos="182.91" lane="15.0.00_0" slope="0.00"/>
        <vehicle id="1" x="266.10" y="326.64" angle="90.00" type="DEFAULT_VEHTYPE" speed="12.26" pos="97.96" lane="1.0.00_0" slope="0.00"/>
        <vehicle id="10" x="48.04" y="-1.95" angle="90.03" type="DEFAULT_VEHTYPE" speed="14.14" pos="37.82" lane="-5.0.00_0" slope="0.00"/>
        <vehicle id="11" x="92.43" y="317.64" angle="359.98" type="DEFAULT_VEHTYPE" speed="4.50" pos="35.19" lane="21.0.00_0" slope="0.00"/>
        <vehicle id="12" x="354.72" y="330.61" angle="270.03" type="DEFAULT_VEHTYPE" speed="8.56" pos="29.93" lane="-0.0.00_0" slope="0.00"/>
        <vehicle id="13" x="338.94" y="308.07" angle="0.03" type="DEFAULT_VEHTYPE" speed="8.71" pos="25.88" lane="16.0.00_0" slope="0.00"/>
        <vehicle id="14" x="308.38" y="2.00" angle="270.00" type="DEFAULT_VEHTYPE" speed="6.61" pos="17.40" lane="6.0.00_0" slope="0.00"/>
        <vehicle id="15" x="314.87" y="133.45" angle="270.01" type="DEFAULT_VEHTYPE" speed="3.67" pos="10.86" lane="12.0.00_0" slope="0.00"/>
        <vehicle id="17" x="334.95" y="312.72" angle="180.03" type="DEFAULT_VEHTYPE" speed="0.00" pos="5.10" lane="-16.0.00_0" slope="0.00"/>
        <vehicle id="2" x="232.42" y="273.13" angle="269.99" type="DEFAULT_VEHTYPE" speed="13.71" pos="93.27" lane="10.0.00_0" slope="0.00"/>
        <vehicle id="3" x="392.36" y="164.54" angle="180.00" type="DEFAULT_VEHTYPE" speed="14.99" pos="154.22" lane="8.0.00_0" slope="0.00"/>
        <vehicle id="4" x="241.85" y="330.65" angle="270.11" type="DEFAULT_VEHTYPE" speed="14.13" pos="83.84" lane="-1.0.00_0" slope="0.00"/>
        <vehicle id="5" x="2.07" y="34.90" angle="0.00" type="DEFAULT_VEHTYPE" speed="11.51" pos="23.74" lane="15.0.00_0" slope="0.00"/>
        <vehicle id="6" x="392.36" y="254.16" angle="180.11" type="DEFAULT_VEHTYPE" speed="13.54" pos="64.60" lane="8.0.00_0" slope="0.00"/>
        <vehicle id="7" x="-1.99" y="218.22" angle="180.00" type="DEFAULT_VEHTYPE" speed="11.94" pos="100.43" lane="-15.0.00_0" slope="0.00"/>
        <vehicle id="9" x="90.56" y="268.12" angle="227.74" type="DEFAULT_VEHTYPE" speed="7.84" pos="12.60" lane=":184_3_0" slope="0.00"/>
    </timestep>
    <timestep time="18.00">
        <vehicle id="0" x="2.02" y="208.47" angle="0.00" type="DEFAULT_VEHTYPE" speed="14.40" pos="197.31" lane="15.0.00_0" slope="0.00"/>
        <vehicle id="1" x="278.58" y="326.64" angle="90.00" type="DEFAULT_VEHTYPE" speed="12.48" pos="110.43" lane="1.0.00_0" slope="0.00"/>
        <vehicle id="10" x="62.28" y="-1.96" angle="90.03" type="DEFAULT_VEHTYPE" speed="14.24" pos="52.06" lane="-5.0.00_0" slope="0.00"/>
        <vehicle id="11" x="94.29" y="323.47" angle="20.37" type="DEFAULT_VEHTYPE" speed="6.27" pos="5.97" lane=":77_2_0" slope="0.00"/>
        <vehicle id="12" x="349.43" y="330.61" angle="270.03" type="DEFAULT_VEHTYPE" speed="5.29" pos="35.22" lane="-0.0.00_0" slope="0.00"/>
        <vehicle id="13" x="338.95" y="314.22" angle="0.03" type="DEFAULT_VEHTYPE" speed="6.16" pos="32.03" lane="16.0.00_0" slope="0.00"/>
        <vehicle id="14" x="299.34" y="2.00" angle="270.00" type="DEFAULT_VEHTYPE" speed="9.04" pos="26.44" lane="6.0.00_0" slope="0.00"/>
        <vehicle id="15" x="309.60" y="133.45" angle="270.01" type="DEFAULT_VEHTYPE" speed="5.27" pos="16.13" lane="12.0.00_0" slope="0.00"/>
        <vehicle id="16" x="320.63" y="133.45" angle="270.01" type="DEFAULT_VEHTYPE" speed="0.00" pos="5.10" lane="12.0.00_0" slope="0.00"/>
        <vehicle id="17" x="334.95" y="310.23" angle="180.03" type="DEFAULT_VEHTYPE" speed="2.49" pos="7.59" lane="-16.0.00_0" slope="0.00"/>
        <vehicle id="18" x="139.95" y="273.12" angle="269.99" type="DEFAULT_VEHTYPE" speed="0.00" pos="5.10" lane="9.0.00_0" slope="0.00"/>
        <vehicle id="2" x="219.09" y="273.13" angle="269.99" type="DEFAULT_VEHTYPE" speed="13.33" pos="106.59" lane="10.0.00_0" slope="0.00"/>
        <vehicle id="3" x="392.37" y="150.05" angle="180.00" type="DEFAULT_VEHTYPE" speed="14.49" pos="168.71" lane="8.0.00_0" slope="0.00"/>
        <vehicle id="4" x="228.10" y="330.65" angle="270.00" type="DEFAULT_VEHTYPE" speed="13.75" pos="97.59" lane="-1.0.00_0" slope="0.00"/>
        <vehicle id="5" x="2.07" y="45.60" angle="0.00" type="DEFAULT_VEHTYPE" speed="10.69" pos="34.44" lane="15.0.00_0" slope="0.00"/>
        <vehicle id="6" x="392.35" y="240.74" angle="180.00" type="DEFAULT_VEHTYPE" speed="13.42" pos="78.02" lane="8.0.00_0" slope="0.00"/>
        <vehicle id="7" x="-1.98" y="206.29" angle="179.99" type="DEFAULT_VEHTYPE" speed="11.93" pos="112.36" lane="-15.0.00_0" slope="0.00"/>
        <vehicle id="9" x="88.58" y="261.41" angle="190.00" type="DEFAULT_VEHTYPE" speed="7.14" pos="19.74" lane=":184_3_0" slope="0.00"/>
    </timestep>
    <timestep time="19.00">
        <vehicle id="0" x="2.01" y="222.38" angle="0.00" type="DEFAULT_VEHTYPE" speed="13.92" pos="211.22" lane="15.0.00_0" slope="0.00"/>
        <vehicle id="1" x="291.03" y="326.64" angle="90.00" type="DEFAULT_VEHTYPE" speed="12.45" pos="122.89" lane="1.0.00_0" slope="0.00"/>
        <vehicle id="10" x="76.54" y="-1.97" angle="90.03" type="DEFAULT_VEHTYPE" speed="14.27" pos="66.32" lane="-5.0.00_0" slope="0.00"/>
        <vehicle id="11" x="101.85" y="326.55" angle="77.68" type="DEFAULT_VEHTYPE" speed="8.50" pos="14.46" lane=":77_2_0" slope="0.00"/>
        <vehicle id="12" x="343.74" y="329.99" angle="262.82" type="DEFAULT_VEHTYPE" speed="5.74" pos="4.59" lane=":43_1_0" slope="0.00"/>
        <vehicle id="13" x="340.09" y="322.52" angle="13.37" type="DEFAULT_VEHTYPE" speed="8.50" pos="4.92" lane=":43_2_0" slope="0.00"/>
        <vehicle id="14" x="287.84" y="2.00" angle="270.00" type="DEFAULT_VEHTYPE" speed="11.50" pos="37.94" lane="6.0.00_0" slope="0.00"/>
        <vehicle id="15" x="302.25" y="133.45" angle="270.01" type="DEFAULT_VEHTYPE" speed="7.35" pos="23.48" lane="12.0.00_0" slope="0.00"/>
        <vehicle id="16" x="318.89" y="133.45" angle="270.01" type="DEFAULT_VEHTYPE" speed="1.74" pos="6.84" lane="12.0.00_0" slope="0.00"/>
        <vehicle id="17" x="334.94" y="305.66" angle="180.03" type="DEFAULT_VEHTYPE" speed="4.57" pos="12.16" lane="-16.0.00_0" slope="0.00"/>
        <vehicle id="18" x="137.41" y="273.12" angle="269.99" type="DEFAULT_VEHTYPE" speed="2.54" pos="7.64" lane="9.0.00_0" slope="0.00"/>
        <vehicle id="19" x="391.20" y="5.22" angle="194.33" type="DEFAULT_VEHTYPE" speed="0.00" pos="5.10" lane="-14.0.00_0" slope="0.00"/>
        <vehicle id="2" x="206.02" y="273.12" angle="269.99" type="DEFAULT_VEHTYPE" speed="13.07" pos="119.66" lane="10.0.00_0" slope="0.00"/>
        <vehicle id="3" x="392.37" y="135.49" angle="180.00" type="DEFAULT_VEHTYPE" speed="14.56" pos="183.27" lane="8.0.00_0" slope="0.00"/>
        <vehicle id="4" x="214.42" y="330.65" angle="270.00" type="DEFAULT_VEHTYPE" speed="13.67" pos="111.27" lane="-1.0.00_0" slope="0.00"/>
        <vehicle id="5" x="2.08" y="56.79" angle="0.00" type="DEFAULT_VEHTYPE" speed="11.20" pos="45.63" lane="15.0.00_0" slope="0.00"/>
        <vehicle id="6" x="392.35" y="226.72" angle="180.00" type="DEFAULT_VEHTYPE" speed="14.02" pos="92.04" lane="8.0.00_0" slope="0.00"/>
        <vehicle id="7" x="-1.98" y="194.45" angle="180.00" type="DEFAULT_VEHTYPE" speed="11.83" pos="124.20" lane="-15.0.00_0" slope="0.00"/>
        <vehicle id="9" x="88.44" y="254.42" angle="179.99" type="DEFAULT_VEHTYPE" speed="6.99" pos="6.03" lane="-22.0.00_0" slope="0.00"/>