<?xml version="1.0" encoding="UTF-8"?>

<!-- generated on Wed Aug 14 12:00:52 2019 by Eclipse SUMO Version 1.2.0
<configuration xmlns:xsi="http://www.w3.org/2001/XMLSchema-instance" xsi:noNamespaceSchemaLocation="http://sumo.dlr.de/xsd/sumoConfiguration.xsd">

    <input>
        <net-file value="Town01.net.xml"/>
        <route-files value="trips.trips.xml"/>
    </input>

    <output>
        <netstate-dump value="test.log"/>
        <fcd-output value="Town01_Car150_2.log"/>
    </output>

    <time>
        <begin value="0"/>
        <end value="10000"/>
    </time>

</configuration>
-->

<fcd-export xmlns:xsi="http://www.w3.org/2001/XMLSchema-instance" xsi:noNamespaceSchemaLocation="http://sumo.dlr.de/xsd/fcd_file.xsd">
    <timestep time="0.00">
        <vehicle id="0" x="338.77" y="16.26" angle="0.03" type="DEFAULT_VEHTYPE" speed="0.00" pos="5.10" lane="19.0.00_0" slope="0.00"/>
    </timestep>
    <timestep time="1.00">
        <vehicle id="0" x="338.77" y="18.77" angle="0.03" type="DEFAULT_VEHTYPE" speed="2.51" pos="7.61" lane="19.0.00_0" slope="0.00"/>
        <vehicle id="1" x="158.09" y="287.51" angle="0.08" type="DEFAULT_VEHTYPE" speed="0.00" pos="5.10" lane="25.0.00_0" slope="0.00"/>
    </timestep>
    <timestep time="2.00">
        <vehicle id="0" x="338.78" y="23.43" angle="0.03" type="DEFAULT_VEHTYPE" speed="4.66" pos="12.27" lane="19.0.00_0" slope="0.00"/>
        <vehicle id="1" x="158.09" y="289.71" angle="0.08" type="DEFAULT_VEHTYPE" speed="2.20" pos="7.30" lane="25.0.00_0" slope="0.00"/>
        <vehicle id="2" x="391.20" y="5.22" angle="194.33" type="DEFAULT_VEHTYPE" speed="0.00" pos="5.10" lane="-14.0.00_0" slope="0.00"/>
    </timestep>
    <timestep time="3.00">
        <vehicle id="0" x="338.78" y="29.46" angle="0.03" type="DEFAULT_VEHTYPE" speed="6.04" pos="18.30" lane="19.0.00_0" slope="0.00"/>
        <vehicle id="1" x="158.10" y="293.93" angle="0.08" type="DEFAULT_VEHTYPE" speed="4.22" pos="11.52" lane="25.0.00_0" slope="0.00"/>
        <vehicle id="2" x="390.33" y="4.17" angle="204.67" type="DEFAULT_VEHTYPE" speed="1.38" pos="6.48" lane="-14.0.00_0" slope="0.00"/>
        <vehicle id="3" x="334.87" y="179.84" angle="180.03" type="DEFAULT_VEHTYPE" speed="0.00" pos="5.10" lane="-18.0.00_0" slope="0.00"/>
    </timestep>
    <timestep time="4.00">
        <vehicle id="0" x="338.78" y="37.88" angle="0.03" type="DEFAULT_VEHTYPE" speed="8.42" pos="26.72" lane="19.0.00_0" slope="0.00"/>
        <vehicle id="1" x="158.11" y="300.73" angle="0.08" type="DEFAULT_VEHTYPE" speed="6.80" pos="18.32" lane="25.0.00_0" slope="0.00"/>
        <vehicle id="2" x="388.05" y="2.73" angle="228.19" type="DEFAULT_VEHTYPE" speed="2.70" pos="9.18" lane="-14.0.00_0" slope="0.00"/>
        <vehicle id="3" x="334.87" y="178.13" angle="180.03" type="DEFAULT_VEHTYPE" speed="1.71" pos="6.81" lane="-18.0.00_0" slope="0.00"/>
        <vehicle id="4" x="74.34" y="330.65" angle="269.98" type="DEFAULT_VEHTYPE" speed="0.00" pos="5.10" lane="-3.0.00_0" slope="0.00"/>
    </timestep>
    <timestep time="5.00">
        <vehicle id="0" x="338.79" y="47.85" angle="0.03" type="DEFAULT_VEHTYPE" speed="9.96" pos="36.69" lane="19.0.00_0" slope="0.00"/>
        <vehicle id="1" x="158.12" y="309.71" angle="0.08" type="DEFAULT_VEHTYPE" speed="8.98" pos="27.30" lane="25.0.00_0" slope="0.00"/>
        <vehicle id="2" x="384.02" y="2.00" angle="257.37" type="DEFAULT_VEHTYPE" speed="4.14" pos="0.29" lane=":7.14_0_0" slope="0.00"/>
        <vehicle id="3" x="334.86" y="173.89" angle="180.03" type="DEFAULT_VEHTYPE" speed="4.24" pos="11.05" lane="-18.0.00_0" slope="0.00"/>
        <vehicle id="4" x="72.45" y="330.65" angle="269.98" type="DEFAULT_VEHTYPE" speed="1.89" pos="6.99" lane="-3.0.00_0" slope="0.00"/>
        <vehicle id="5" x="352.89" y="-2.00" angle="90.00" type="DEFAULT_VEHTYPE" speed="0.00" pos="5.10" lane="-7.0.00_0" slope="0.00"/>
    </timestep>
    <timestep time="6.00">
        <vehicle id="0" x="338.80" y="59.61" angle="0.03" type="DEFAULT_VEHTYPE" speed="11.76" pos="48.45" lane="19.0.00_0" slope="0.00"/>
        <vehicle id="2" x="377.57" y="2.00" angle="270.00" type="DEFAULT_VEHTYPE" speed="6.44" pos="6.41" lane="7.0.00_0" slope="0.00"/>
        <vehicle id="3" x="334.86" y="167.63" angle="180.03" type="DEFAULT_VEHTYPE" speed="6.26" pos="17.31" lane="-18.0.00_0" slope="0.00"/>
        <vehicle id="4" x="68.22" y="330.65" angle="269.98" type="DEFAULT_VEHTYPE" speed="4.23" pos="11.22" lane="-3.0.00_0" slope="0.00"/>
        <vehicle id="5" x="354.87" y="-2.00" angle="90.00" type="DEFAULT_VEHTYPE" speed="1.98" pos="7.08" lane="-7.0.00_0" slope="0.00"/>
        <vehicle id="6" x="6.04" y="330.15" angle="264.42" type="DEFAULT_VEHTYPE" speed="0.00" pos="5.10" lane="13.0.00_0" slope="0.00"/>
    </timestep>
    <timestep time="7.00">
        <vehicle id="0" x="338.80" y="73.37" angle="0.03" type="DEFAULT_VEHTYPE" speed="13.76" pos="62.21" lane="19.0.00_0" slope="0.00"/>
        <vehicle id="2" x="368.62" y="2.00" angle="270.00" type="DEFAULT_VEHTYPE" speed="8.95" pos="15.36" lane="7.0.00_0" slope="0.00"/>
        <vehicle id="3" x="334.86" y="160.07" angle="180.03" type="DEFAULT_VEHTYPE" speed="7.56" pos="24.87" lane="-18.0.00_0" slope="0.00"/>
        <vehicle id="4" x="62.66" y="330.65" angle="269.98" type="DEFAULT_VEHTYPE" speed="5.56" pos="16.78" lane="-3.0.00_0" slope="0.00"/>
        <vehicle id="5" x="358.54" y="-2.00" angle="90.00" type="DEFAULT_VEHTYPE" speed="3.67" pos="10.75" lane="-7.0.00_0" slope="0.00"/>
        <vehicle id="6" x="3.87" y="329.28" angle="254.58" type="DEFAULT_VEHTYPE" speed="2.34" pos="7.44" lane="13.0.00_0" slope="0.00"/>
        <vehicle id="7" x="106.58" y="195.20" angle="90.03" type="DEFAULT_VEHTYPE" speed="0.00" pos="5.10" lane="-4.0.00_0" slope="0.00"/>
    </timestep>
    <timestep time="8.00">
        <vehicle id="0" x="338.81" y="87.37" angle="0.03" type="DEFAULT_VEHTYPE" speed="14.01" pos="76.21" lane="19.0.00_0" slope="0.00"/>
        <vehicle id="2" x="357.55" y="2.00" angle="270.00" type="DEFAULT_VEHTYPE" speed="11.07" pos="26.43" lane="7.0.00_0" slope="0.00"/>
        <vehicle id="3" x="334.85" y="150.92" angle="180.03" type="DEFAULT_VEHTYPE" speed="9.16" pos="34.03" lane="-18.0.00_0" slope="0.00"/>
        <vehicle id="4" x="55.71" y="330.64" angle="269.98" type="DEFAULT_VEHTYPE" speed="6.95" pos="23.73" lane="-3.0.00_0" slope="0.00"/>
        <vehicle id="5" x="363.53" y="-2.00" angle="90.00" type="DEFAULT_VEHTYPE" speed="5.00" pos="15.74" lane="-7.0.00_0" slope="0.00"/>
        <vehicle id="6" x="0.85" y="327.05" angle="236.64" type="DEFAULT_VEHTYPE" speed="3.78" pos="11.22" lane="13.0.00_0" slope="0.00"/>
        <vehicle id="7" x="108.71" y="195.20" angle="90.03" type="DEFAULT_VEHTYPE" speed="2.13" pos="7.23" lane="-4.0.00_0" slope="0.00"/>
        <vehicle id="8" x="320.60" y="199.09" angle="270.03" type="DEFAULT_VEHTYPE" speed="0.00" pos="5.10" lane="4.0.00_0" slope="0.00"/>
    </timestep>
    <timestep time="9.00">
        <vehicle id="0" x="338.82" y="101.73" angle="0.03" type="DEFAULT_VEHTYPE" speed="14.36" pos="90.57" lane="19.0.00_0" slope="0.00"/>
        <vehicle id="2" x="349.05" y="2.00" angle="270.00" type="DEFAULT_VEHTYPE" speed="8.50" pos="34.93" lane="7.0.00_0" slope="0.00"/>
        <vehicle id="3" x="334.85" y="143.22" angle="180.03" type="DEFAULT_VEHTYPE" speed="7.70" pos="41.73" lane="-18.0.00_0" slope="0.00"/>
        <vehicle id="4" x="46.27" y="330.64" angle="269.98" type="DEFAULT_VEHTYPE" speed="9.44" pos="33.17" lane="-3.0.00_0" slope="0.00"/>
        <vehicle id="5" x="371.04" y="-2.00" angle="90.00" type="DEFAULT_VEHTYPE" speed="7.51" pos="23.25" lane="-7.0.00_0" slope="0.00"/>
        <vehicle id="6" x="-1.80" y="321.53" angle="202.58" type="DEFAULT_VEHTYPE" speed="6.23" pos="17.45" lane="13.0.00_0" slope="0.00"/>
        <vehicle id="7" x="112.60" y="195.19" angle="90.03" type="DEFAULT_VEHTYPE" speed="3.89" pos="11.12" lane="-4.0.00_0" slope="0.00"/>
        <vehicle id="8" x="318.28" y="199.09" angle="270.03" type="DEFAULT_VEHTYPE" speed="2.32" pos="7.42" lane="4.0.00_0" slope="0.00"/>
        <vehicle id="9" x="16.19" y="326.63" angle="89.98" type="DEFAULT_VEHTYPE" speed="0.00" pos="5.10" lane="3.0.00_0" slope="0.00"/>
    </timestep>
    <timestep time="10.00">
        <vehicle id="0" x="338.83" y="114.89" angle="0.03" type="DEFAULT_VEHTYPE" speed="13.16" pos="103.73" lane="19.0.00_0" slope="0.00"/>
        <vehicle id="2" x="342.09" y="3.64" angle="287.69" type="DEFAULT_VEHTYPE" speed="7.30" pos="6.04" lane=":60_2_0" slope="0.00"/>
        <vehicle id="3" x="332.51" y="135.79" angle="203.65" type="DEFAULT_VEHTYPE" speed="7.95" pos="7.69" lane=":94_0_0" slope="0.00"/>
        <vehicle id="4" x="34.30" y="330.64" angle="269.98" type="DEFAULT_VEHTYPE" speed="11.98" pos="45.14" lane="-3.0.00_0" slope="0.00"/>
        <vehicle id="5" x="380.62" y="-2.00" angle="90.00" type="DEFAULT_VEHTYPE" speed="9.58" pos="32.83" lane="-7.0.00_0" slope="0.00"/>
        <vehicle id="6" x="-1.97" y="313.54" angle="180.00" type="DEFAULT_VEHTYPE" speed="8.09" pos="5.11" lane="-15.0.00_0" slope="0.00"/>
        <vehicle id="7" x="118.82" y="195.19" angle="90.03" type="DEFAULT_VEHTYPE" speed="6.22" pos="17.34" lane="-4.0.00_0" slope="0.00"/>
        <vehicle id="8" x="313.49" y="199.10" angle="270.03" type="DEFAULT_VEHTYPE" speed="4.78" pos="12.21" lane="4.0.00_0" slope="0.00"/>
        <vehicle id="9" x="17.57" y="326.63" angle="89.98" type="DEFAULT_VEHTYPE" speed="1.38" pos="6.48" lane="3.0.00_0" slope="0.00"/>
    </timestep>
    <timestep time="11.00">
        <vehicle id="0" x="338.29" y="123.54" angle="353.79" type="DEFAULT_VEHTYPE" speed="8.68" pos="4.13" lane=":94_3_0" slope="0.00"/>
        <vehicle id="11" x="139.92" y="330.66" angle="270.00" type="DEFAULT_VEHTYPE" speed="0.00" pos="5.10" lane="-2.0.00_0" slope="0.00"/>
        <vehicle id="2" x="338.98" y="9.63" angle="340.75" type="DEFAULT_VEHTYPE" speed="7.07" pos="13.12" lane=":60_2_0" slope="0.00"/>
        <vehicle id="3" x="325.39" y="133.45" angle="259.23" type="DEFAULT_VEHTYPE" speed="7.67" pos="0.34" lane="12.0.00_0" slope="0.00"/>
        <vehicle id="4" x="20.49" y="330.63" angle="269.98" type="DEFAULT_VEHTYPE" speed="13.81" pos="58.95" lane="-3.0.00_0" slope="0.00"/>
        <vehicle id="5" x="390.81" y="-0.42" angle="72.35" type="DEFAULT_VEHTYPE" speed="10.46" pos="6.76" lane="14.0.00_0" slope="0.00"/>
        <vehicle id="6" x="-1.98" y="302.89" angle="180.11" type="DEFAULT_VEHTYPE" speed="10.65" pos="15.76" lane="-15.0.00_0" slope="0.00"/>
        <vehicle id="7" x="127.62" y="195.19" angle="90.03" type="DEFAULT_VEHTYPE" speed="8.80" pos="26.14" lane="-4.0.00_0" slope="0.00"/>
        <vehicle id="8" x="306.98" y="199.10" angle="270.03" type="DEFAULT_VEHTYPE" speed="6.51" pos="18.72" lane="4.0.00_0" slope="0.00"/>
        <vehicle id="9" x="21.46" y="326.63" angle="89.98" type="DEFAULT_VEHTYPE" speed="3.90" pos="10.37" lane="3.0.00_0" slope="0.00"/>
    </timestep>
    <timestep time="12.00">
        <vehicle id="0" x="334.78" y="130.45" angle="325.54" type="DEFAULT_VEHTYPE" speed="8.00" pos="3.54" lane=":94_6_0" slope="0.00"/>
        <vehicle id="10" x="389.29" y="-1.11" angle="79.65" type="DEFAULT_VEHTYPE" speed="0.00" pos="5.10" lane="14.0.00_0" slope="0.00"/>
        <vehicle id="11" x="137.93" y="330.66" angle="270.00" type="DEFAULT_VEHTYPE" speed="1.99" pos="7.09" lane="-2.0.00_0" slope="0.00"/>
        <vehicle id="12" x="334.95" y="312.72" angle="180.03" type="DEFAULT_VEHTYPE" speed="0.00" pos="5.10" lane="-16.0.00_0" slope="0.00"/>
        <vehicle id="2" x="338.77" y="17.34" angle="0.03" type="DEFAULT_VEHTYPE" speed="7.72" pos="6.18" lane="19.0.00_0" slope="0.00"/>
        <vehicle id="3" x="315.97" y="133.45" angle="270.01" type="DEFAULT_VEHTYPE" speed="9.42" pos="9.76" lane="12.0.00_0" slope="0.00"/>
        <vehicle id="4" x="7.30" y="330.42" angle="267.54" type="DEFAULT_VEHTYPE" speed="13.31" pos="3.81" lane="13.0.00_0" slope="0.00"/>
        <vehicle id="5" x="396.37" y="8.48" angle="16.03" type="DEFAULT_VEHTYPE" speed="10.97" pos="17.74" lane="14.0.00_0" slope="0.00"/>
        <vehicle id="6" x="-1.98" y="289.72" angle="180.00" type="DEFAULT_VEHTYPE" speed="13.17" pos="28.93" lane="-15.0.00_0" slope="0.00"/>
        <vehicle id="7" x="138.24" y="195.18" angle="90.03" type="DEFAULT_VEHTYPE" speed="10.62" pos="36.76" lane="-4.0.00_0" slope="0.00"/>
        <vehicle id="8" x="298.68" y="199.10" angle="270.03" type="DEFAULT_VEHTYPE" speed="8.30" pos="27.02" lane="4.0.00_0" slope="0.00"/>
        <vehicle id="9" x="27.71" y="326.63" angle="89.98" type="DEFAULT_VEHTYPE" speed="6.25" pos="16.62" lane="3.0.00_0" slope="0.00"/>
    </timestep>
    <timestep time="13.00">
        <vehicle id="0" x="325.61" y="133.45" angle="278.42" type="DEFAULT_VEHTYPE" speed="9.86" pos="0.12" lane="12.0.00_0" slope="0.00"/>
        <vehicle id="10" x="391.54" y="0.09" angle="67.89" type="DEFAULT_VEHTYPE" speed="2.56" pos="7.66" lane="14.0.00_0" slope="0.00"/>
        <vehicle id="11" x="134.08" y="330.66" angle="270.00" type="DEFAULT_VEHTYPE" speed="3.84" pos="10.93" lane="-2.0.00_0" slope="0.00"/>
        <vehicle id="12" x="334.95" y="310.93" angle="180.03" type="DEFAULT_VEHTYPE" speed="1.79" pos="6.89" lane="-16.0.00_0" slope="0.00"/>
        <vehicle id="2" x="338.78" y="26.73" angle="0.03" type="DEFAULT_VEHTYPE" speed="9.40" pos="15.57" lane="19.0.00_0" slope="0.00"/>
        <vehicle id="3" x="304.65" y="133.45" angle="270.01" type="DEFAULT_VEHTYPE" speed="11.33" pos="21.08" lane="12.0.00_0" slope="0.00"/>
        <vehicle id="4" x="-1.85" y="321.16" angle="200.50" type="DEFAULT_VEHTYPE" speed="14.01" pos="17.82" lane="13.0.00_0" slope="0.00"/>
        <vehicle id="5" x="396.41" y="19.27" angle="0.00" type="DEFAULT_VEHTYPE" speed="10.90" pos="9.20" lane="-8.0.00_0" slope="0.00"/>
        <vehicle id="6" x="-1.99" y="275.80" angle="180.11" type="DEFAULT_VEHTYPE" speed="13.92" pos="42.85" lane="-15.0.00_0" slope="0.00"/>
        <vehicle id="7" x="150.15" y="195.18" angle="90.03" type="DEFAULT_VEHTYPE" speed="11.91" pos="48.67" lane="-4.0.00_0" slope="0.00"/>
        <vehicle id="8" x="288.69" y="199.11" angle="270.03" type="DEFAULT_VEHTYPE" speed="9.99" pos="37.01" lane="4.0.00_0" slope="0.00"/>
        <vehicle id="9" x="36.17" y="326.64" angle="89.98" type="DEFAULT_VEHTYPE" speed="8.46" pos="25.08" lane="3.0.00_0" slope="0.00"/>
    </timestep>
    <timestep time="14.00">
        <vehicle id="0" x="314.59" y="133.45" angle="270.01" type="DEFAULT_VEHTYPE" speed="11.02" pos="11.14" lane="12.0.00_0" slope="0.00"/>
        <vehicle id="10" x="394.57" y="3.07" angle="46.67" type="DEFAULT_VEHTYPE" speed="4.29" pos="11.95" lane="14.0.00_0" slope="0.00"/>
        <vehicle id="11" x="127.69" y="330.66" angle="270.00" type="DEFAULT_VEHTYPE" speed="6.39" pos="17.33" lane="-2.0.00_0" slope="0.00"/>
        <vehicle id="12" x="334.94" y="307.04" angle="180.03" type="DEFAULT_VEHTYPE" speed="3.90" pos="10.78" lane="-16.0.00_0" slope="0.00"/>
        <vehicle id="14" x="320.60" y="199.09" angle="270.03" type="DEFAULT_VEHTYPE" speed="0.00" pos="5.10" lane="4.0.00_0" slope="0.00"/>
        <vehicle id="2" x="338.78" y="38.13" angle="0.03" type="DEFAULT_VEHTYPE" speed="11.40" pos="26.97" lane="19.0.00_0" slope="0.00"/>
        <vehicle id="3" x="291.23" y="133.45" angle="270.01" type="DEFAULT_VEHTYPE" speed="13.42" pos="34.50" lane="12.0.00_0" slope="0.00"/>
        <vehicle id="4" x="-1.97" y="307.46" angle="180.00" type="DEFAULT_VEHTYPE" speed="13.81" pos="11.19" lane="-15.0.00_0" slope="0.00"/>
        <vehicle id="5" x="396.40" y="29.54" angle="0.00" type="DEFAULT_VEHTYPE" speed="10.26" pos="19.47" lane="-8.0.00_0" slope="0.00"/>
        <vehicle id="6" x="-1.99" y="261.69" angle="180.00" type="DEFAULT_VEHTYPE" speed="14.11" pos="56.96" lane="-15.0.00_0" slope="0.00"/>
        <vehicle id="7" x="161.52" y="195.17" angle="90.03" type="DEFAULT_VEHTYPE" speed="11.38" pos="60.04" lane="-4.0.00_0" slope="0.00"/>
        <vehicle id="8" x="276.43" y="199.11" angle="270.03" type="DEFAULT_VEHTYPE" speed="12.26" pos="49.27" lane="4.0.00_0" slope="0.00"/>
        <vehicle id="9" x="45.99" y="326.64" angle="89.98" type="DEFAULT_VEHTYPE" speed="9.82" pos="34.90" lane="3.0.00_0" slope="0.00"/>
    </timestep>
    <timestep time="15.00">
        <vehicle id="0" x="301.48" y="133.45" angle="270.01" type="DEFAULT_VEHTYPE" speed="13.11" pos="24.25" lane="12.0.00_0" slope="0.00"/>
        <vehicle id="10" x="396.36" y="8.40" angle="16.48" type="DEFAULT_VEHTYPE" speed="5.71" pos="17.65" lane="14.0.00_0" slope="0.00"/>
        <vehicle id="11" x="119.88" y="330.66" angle="270.00" type="DEFAULT_VEHTYPE" speed="7.81" pos="25.13" lane="-2.0.00_0" slope="0.00"/>
        <vehicle id="12" x="334.94" y="301.71" angle="180.03" type="DEFAULT_VEHTYPE" speed="5.32" pos="16.11" lane="-16.0.00_0" slope="0.00"/>
        <vehicle id="13" x="-1.97" y="313.55" angle="180.00" type="DEFAULT_VEHTYPE" speed="0.00" pos="5.10" lane="-15.0.00_0" slope="0.00"/>
        <vehicle id="14" x="318.38" y="199.09" angle="270.03" type="DEFAULT_VEHTYPE" speed="2.22" pos="7.32" lane="4.0.00_0" slope="0.00"/>
        <vehicle id="15" x="378.88" y="2.00" angle="270.00" type="DEFAULT_VEHTYPE" speed="0.00" pos="5.10" lane="7.0.00_0" slope="0.00"/>
        <vehicle id="2" x="338.79" y="50.86" angle="0.03" type="DEFAULT_VEHTYPE" speed="12.73" pos="39.70" lane="19.0.00_0" slope="0.00"/>
        <vehicle id="3" x="277.20" y="133.45" angle="270.01" type="DEFAULT_VEHTYPE" speed="14.03" pos="48.53" lane="12.0.00_0" slope="0.00"/>
        <vehicle id="4" x="-1.98" y="293.74" angle="180.00" type="DEFAULT_VEHTYPE" speed="13.72" pos="24.91" lane="-15.0.00_0" slope="0.00"/>
        <vehicle id="5" x="396.40" y="40.98" angle="0.00" type="DEFAULT_VEHTYPE" speed="11.44" pos="30.91" lane="-8.0.00_0" slope="0.00"/>
        <vehicle id="6" x="-2.00" y="247.36" angle="180.00" type="DEFAULT_VEHTYPE" speed="14.33" pos="71.29" lane="-15.0.00_0" slope="0.00"/>
        <vehicle id="7" x="172.60" y="195.17" angle="90.03" type="DEFAULT_VEHTYPE" speed="11.08" pos="71.13" lane="-4.0.00_0" slope="0.00"/>
        <vehicle id="8" x="264.52" y="199.12" angle="270.03" type="DEFAULT_VEHTYPE" speed="11.91" pos="61.18" lane="4.0.00_0" slope="0.00"/>
        <vehicle id="9" x="57.63" y="326.64" angle="89.98" type="DEFAULT_VEHTYPE" speed="11.64" pos="46.54" lane="3.0.00_0" slope="0.00"/>
    </timestep>
    <timestep time="16.00">
        <vehicle id="0" x="287.28" y="133.45" angle="270.01" type="DEFAULT_VEHTYPE" speed="14.20" pos="38.45" lane="12.0.00_0" slope="0.00"/>
        <vehicle id="10" x="396.41" y="15.68" angle="0.00" type="DEFAULT_VEHTYPE" speed="7.39" pos="5.61" lane="-8.0.00_0" slope="0.00"/>
        <vehicle id="11" x="110.43" y="330.66" angle="270.00" type="DEFAULT_VEHTYPE" speed="9.45" pos="34.59" lane="-2.0.00_0" slope="0.00"/>
        <vehicle id="12" x="334.94" y="294.09" angle="180.03" type="DEFAULT_VEHTYPE" speed="7.62" pos="23.73" lane="-16.0.00_0" slope="0.00"/>
        <vehicle id="13" x="-1.97" y="311.33" angle="180.00" type="DEFAULT_VEHTYPE" speed="2.22" pos="7.32" lane="-15.0.00_0" slope="0.00"/>
        <vehicle id="14" x="313.97" y="199.10" angle="270.03" type="DEFAULT_VEHTYPE" speed="4.41" pos="11.73" lane="4.0.00_0" slope="0.00"/>
        <vehicle id="15" x="377.51" y="2.00" angle="270.00" type="DEFAULT_VEHTYPE" speed="1.37" pos="6.47" lane="7.0.00_0" slope="0.00"/>
        <vehicle id="16" x="154.12" y="312.80" angle="180.08" type="DEFAULT_VEHTYPE" speed="0.00" pos="5.10" lane="-25.0.00_0" slope="0.00"/>
        <vehicle id="2" x="338.80" y="64.24" angle="0.03" type="DEFAULT_VEHTYPE" speed="13.38" pos="53.08" lane="19.0.00_0" slope="0.00"/>
        <vehicle id="3" x="263.02" y="133.46" angle="270.01" type="DEFAULT_VEHTYPE" speed="14.18" pos="62.71" lane="12.0.00_0" slope="0.00"/>
        <vehicle id="4" x="-1.99" y="279.67" angle="180.07" type="DEFAULT_VEHTYPE" speed="14.07" pos="38.98" lane="-15.0.00_0" slope="0.00"/>
        <vehicle id="5" x="396.39" y="52.19" angle="359.89" type="DEFAULT_VEHTYPE" speed="11.21" pos="42.12" lane="-8.0.00_0" slope="0.00"/>
        <vehicle id="6" x="-2.00" y="233.08" angle="180.00" type="DEFAULT_VEHTYPE" speed="14.28" pos="85.57" lane="-15.0.00_0" slope="0.00"/>
        <vehicle id="7" x="184.91" y="195.16" angle="90.03" type="DEFAULT_VEHTYPE" speed="12.31" pos="83.43" lane="-4.0.00_0" slope="0.00"/>
        <vehicle id="8" x="252.61" y="199.13" angle="270.03" type="DEFAULT_VEHTYPE" speed="11.91" pos="73.09" lane="4.0.00_0" slope="0.00"/>
        <vehicle id="9" x="68.63" y="326.65" angle="89.98" type="DEFAULT_VEHTYPE" speed="11.00" pos="57.54" lane="3.0.00_0" slope="0.00"/>
    </timestep>
    <timestep time="17.00">
        <vehicle id="0" x="273.19" y="133.45" angle="270.01" type="DEFAULT_VEHTYPE" speed="14.09" pos="52.54" lane="12.0.00_0" slope="0.00"/>
        <vehicle id="10" x="396.40" y="25.31" angle="359.89" type="DEFAULT_VEHTYPE" speed="9.63" pos="15.24" lane="-8.0.00_0" slope="0.00"/>
        <vehicle id="11" x="100.88" y="330.42" angle="267.26" type="DEFAULT_VEHTYPE" speed="9.56" pos="1.89" lane=":77_1_0" slope="0.00"/>
        <vehicle id="12" x="334.93" y="285.03" angle="180.03" type="DEFAULT_VEHTYPE" speed="9.07" pos="32.79" lane="-16.0.00_0" slope="0.00"/>
        <vehicle id="13" x="-1.97" y="306.89" angle="180.00" type="DEFAULT_VEHTYPE" speed="4.44" pos="11.76" lane="-15.0.00_0" slope="0.00"/>
        <vehicle id="14" x="307.77" y="199.10" angle="270.03" type="DEFAULT_VEHTYPE" speed="6.21" pos="17.93" lane="4.0.00_0" slope="0.00"/>
        <vehicle id="15" x="374.04" y="2.00" angle="270.00" type="DEFAULT_VEHTYPE" speed="3.47" pos="9.94" lane="7.0.00_0" slope="0.00"/>
        <vehicle id="16" x="154.12" y="310.70" angle="180.08" type="DEFAULT_VEHTYPE" speed="2.10" pos="7.20" lane="-25.0.00_0" slope="0.00"/>
        <vehicle id="17" x="334.83" y="114.35" angle="180.03" type="DEFAULT_VEHTYPE" speed="0.00" pos="5.10" lane="-19.0.00_0" slope="0.00"/>
        <vehicle id="2" x="338.81" y="77.68" angle="0.03" type="DEFAULT_VEHTYPE" speed="13.44" pos="66.52" lane="19.0.00_0" slope="0.00"/>
        <vehicle id="3" x="248.42" y="133.46" angle="270.01" type="DEFAULT_VEHTYPE" speed="14.60" pos="77.31" lane="12.0.00_0" slope="0.00"/>
        <vehicle id="4" x="-1.99" y="265.76" angle="180.00" type="DEFAULT_VEHTYPE" speed="13.91" pos="52.89" lane="-15.0.00_0" slope="0.00"/>
        <vehicle id="5" x="396.39" y="62.92" angle="0.00" type="DEFAULT_VEHTYPE" speed="10.73" pos="52.85" lane="-8.0.00_0" slope="0.00"/>
        <vehicle id="6" x="-1.99" y="218.92" angle="180.00" type="DEFAULT_VEHTYPE" speed="14.16" pos="99.73" lane="-15.0.00_0" slope="0.00"/>
        <vehicle id="7" x="196.28" y="195.15" angle="90.03" type="DEFAULT_VEHTYPE" speed="11.37" pos="94.80" lane="-4.0.00_0" slope="0.00"/>
        <vehicle id="8" x="239.67" y="199.13" angle="270.03" type="DEFAULT_VEHTYPE" speed="12.94" pos="86.03" lane="4.0.00_0" slope="0.00"/>
        <vehicle id="9" x="79.93" y="326.65" angle="89.98" type="DEFAULT_VEHTYPE" speed="11.30" pos="0.49" lane=":77_5_0" slope="0.00"/>
    </timestep>
    <timestep time="18.00">
        <vehicle id="0" x="259.08" y="133.46" angle="270.01" type="DEFAULT_VEHTYPE" speed="14.11" pos="66.65" lane="12.0.00_0" slope="0.00"/>
        <vehicle id="10" x="396.40" y="37.26" angle="0.00" type="DEFAULT_VEHTYPE" speed="11.95" pos="27.19" lane="-8.0.00_0" slope="0.00"/>
        <vehicle id="11" x="95.93" y="329.56" angle="260.15" type="DEFAULT_VEHTYPE" speed="5.06" pos="6.94" lane=":77_1_0" slope="0.00"/>
        <vehicle id="12" x="334.93" y="273.95" angle="180.03" type="DEFAULT_VEHTYPE" speed="11.08" pos="8.25" lane=":111_1_0" slope="0.00"/>
        <vehicle id="13" x="-1.98" y="301.10" angle="180.08" type="DEFAULT_VEHTYPE" speed="5.79" pos="17.55" lane="-15.0.00_0" slope="0.00"/>
        <vehicle id="14" x="300.10" y="199.10" angle="270.03" type="DEFAULT_VEHTYPE" speed="7.67" pos="25.60" lane="4.0.00_0" slope="0.00"/>
        <vehicle id="15" x="368.44" y="2.00" angle="270.00" type="DEFAULT_VEHTYPE" speed="5.60" pos="15.54" lane="7.0.00_0" slope="0.00"/>
        <vehicle id="16" x="154.11" y="306.99" angle="180.08" type="DEFAULT_VEHTYPE" speed="3.71" pos="10.91" lane="-25.0.00_0" slope="0.00"/>
        <vehicle id="17" x="334.83" y="112.97" angle="180.03" type="DEFAULT_VEHTYPE" speed="1.38" pos="6.48" lane="-19.0.00_0" slope="0.00"/>
        <vehicle id="18" x="88.46" y="115.18" angle="179.99" type="DEFAULT_VEHTYPE" speed="0.00" pos="5.10" lane="-24.0.00_0" slope="0.00"/>
        <vehicle id="2" x="338.81" y="90.74" angle="0.03" type="DEFAULT_VEHTYPE" speed="13.06" pos="79.58" lane="19.0.00_0" slope="0.00"/>
        <vehicle id="3" x="234.06" y="133.46" angle="270.01" type="DEFAULT_VEHTYPE" speed="14.36" pos="91.67" lane="12.0.00_0" slope="0.00"/>
        <vehicle id="4" x="-2.00" y="251.92" angle="180.11" type="DEFAULT_VEHTYPE" speed="13.84" pos="66.73" lane="-15.0.00_0" slope="0.00"/>
        <vehicle id="5" x="396.38" y="74.45" angle="359.94" type="DEFAULT_VEHTYPE" speed="11.53" pos="64.38" lane="-8.0.00_0" slope="0.00"/>
        <vehicle id="6" x="-1.98" y="205.50" angle="180.00" type="DEFAULT_VEHTYPE" speed="13.42" pos="113.15" lane="-15.0.00_0" slope="0.00"/>
        <vehicle id="7" x="207.97" y="195.15" angle="90.03" type="DEFAULT_VEHTYPE" speed="11.69" pos="106.49" lane="-4.0.00_0" slope="0.00"/>
        <vehicle id="8" x="227.67" y="199.14" angle="270.03" type="DEFAULT_VEHTYPE" speed="12.00" pos="98.03" lane="4.0.00_0" slope="0.00"/>
        <vehicle id="9" x="91.45" y="326.66" angle="89.98" type="DEFAULT_VEHTYPE" speed="11.52" pos="12.01" lane=":77_5_0" slope="0.00"/>
    </timestep>
    <timestep time="19.00">
        <vehicle id="0" x="245.63" y="133.46" angle="270.01" type="DEFAULT_VEHTYPE" speed="13.45" pos="80.10" lane="12.0.00_0" slope="0.00"/>
        <vehicle id="10" x="396.39" y="50.82" angle="359.89" type="DEFAULT_VEHTYPE" speed="13.56" pos="40.75" lane="-8.0.00_0" slope="0.00"/>
        <vehicle id="11" x="94.99" y="329.07" angle="255.77" type="DEFAULT_VEHTYPE" speed="1.06" pos="8.01" lane=":77_1_0" slope="0.00"/>
        <vehicle id="12" x="334.92" y="261.43" angle="180.03" type="DEFAULT_VEHTYPE" speed="12.51" pos="20.77" lane=":111_1_0" slope="0.00"/>
        <vehicle id="13" x="-1.98" y="293.71" angle="180.00" type="DEFAULT_VEHTYPE" speed="7.39" pos="24.94" lane="-15.0.00_0" slope="0.00"/>
        <vehicle id="14" x="290.70" y="199.11" angle="270.03" type="DEFAULT_VEHTYPE" speed="9.40" pos="35.00" lane="4.0.00_0" slope="0.00"/>
        <vehicle id="15" x="361.49" y="2.00" angle="270.00" type="DEFAULT_VEHTYPE" speed="6.94" pos="22.49" lane="7.0.00_0" slope="0.00"/>
        <vehicle id="16" x="154.11" y="300.93" angle="180.08" type="DEFAULT_VEHTYPE" speed="6.06" pos="16.97" lane="-25.0.00_0" slope="0.00"/>
        <vehicle id="17" x="334.82" y="109.90" angle="180.03" type="DEFAULT_VEHTYPE" speed="3.07" pos="9.55" lane="-19.0.00_0" slope="0.00"/>
        <vehicle id="18" x="88.46" y="113.51" angle="179.99" type="DEFAULT_VEHTYPE" speed="1.67" pos="6.77" lane="-24.0.00_0" slope="0.00"/>
        <vehicle id="19" x="92.44" y="287.56" angle="359.98" type="DEFAULT_VEHTYPE" speed="0.00" pos="5.10" lane="21.0.00_0" slope="0.00"/>
        <vehicle id="2" x="338.82" y="104.51" angle="0.03" type="DEFAULT_VEHTYPE" speed="13.77" pos="93.35" lane="19.0.00_0" slope="0.00"/>
        <vehicle id="3" x="220.21" y="133.46" angle="270.01" type="DEFAULT_VEHTYPE" speed="13.84" pos="105.52" lane="12.0.00_0" slope="0.00"/>
        <vehicle id="4" x="-2.00" y="238.36" angle="180.00" type="DEFAULT_VEHTYPE" speed="13.56" pos="80.29" lane="-15.0.00_0" slope="0.00"/>
        <vehicle id="5" x="396.38" y="85.49" angle="0.00" type="DEFAULT_VEHTYPE" speed="11.03" pos="75.42" lane="-8.0.00_0" slope="0.00"/>
        <vehicle id="6" x="-1.97" y="192.16" angle="179.92" type="DEFAULT_VEHTYPE" speed="13.34" pos="126.49" lane="-15.0.00_0" slope="0.00"/>
        <vehicle id="7" x="219.87" y="195.14" angle="90.03" type="DEFAULT_VEHTYPE" speed="11.90" pos="118.39" lane="-4.0.00_0" slope="0.00"/>
        <vehicle id="8" x="214.73" y="199.14" angle="270.03" type="DEFAULT_VEHTYPE" speed="12.95" pos="110.97" lane="4.0.00_0" slope="0.00"/>
        <vehicle id="9" x="103.26" y="326.66" angle="89.98" type="DEFAULT_VEHTYPE" speed="11.82" pos="0.51" lane="2.0.00_0" slope="0.00"/>
    </timestep>
    <timestep time="20.00">
        <vehicle id="0" x="232.18" y="133.46" angle="270.01" type="DEFAULT_VEHTYPE" speed="13.45" pos="93.55" lane="12.0.00_0" slope="0.00"/>
        <vehicle id="10" x="396.39" y="65.17" angle="0.00" type="DEFAULT_VEHTYPE" speed="14.35" pos="55.10" lane="-8.0.00_0" slope="0.00"/>
        <vehicle id="11" x="92.77" y="327.88" angle="245.24" type="DEFAULT_VEHTYPE" speed="2.52" pos="1.65" lane=":77_6_0" slope="0.00"/>
        <vehicle id="12" x="334.91" y="247.73" angle="180.03" type="DEFAULT_VEHTYPE" speed="13.71" pos="11.85" lane="-17.0.00_0" slope="0.00"/>
        <vehicle id="13" x="-1.98" y="284.86" angle="180.00" type="DEFAULT_VEHTYPE" speed="8.85" pos="33.79" lane="-15.0.00_0" slope="0.00"/>
        <vehicle id="14" x="279.52" y="199.11" angle="270.03" type="DEFAULT_VEHTYPE" speed="11.17" pos="46.18" lane="4.0.00_0" slope="0.00"/>
        <vehicle id="15" x="352.80" y="2.00" angle="270.00" type="DEFAULT_VEHTYPE" speed="8.70" pos="31.18" lane="7.0.00_0" slope="0.00"/>
        <vehicle id="16" x="154.09" y="292.61" angle="180.08" type="DEFAULT_VEHTYPE" speed="8.32" pos="25.29" lane="-25.0.00_0" slope="0.00"/>
        <vehicle id="17" x="334.82" y="105.11" angle="180.03" type="DEFAULT_VEHTYPE" speed="4.79" pos="14.34" lane="-19.0.00_0" slope="0.00"/>
        <vehicle id="18" x="88.46" y="109.96" angle="179.99" type="DEFAULT_VEHTYPE" speed="3.56" pos="10.32" lane="-24.0.00_0" slope="0.00"/>