<?xml version="1.0" encoding="UTF-8"?>

<!-- generated on Wed Aug 14 12:00:15 2019 by Eclipse SUMO Version 1.2.0
<configuration xmlns:xsi="http://www.w3.org/2001/XMLSchema-instance" xsi:noNamespaceSchemaLocation="http://sumo.dlr.de/xsd/sumoConfiguration.xsd">

    <input>
        <net-file value="Town01.net.xml"/>
        <route-files value="trips.trips.xml"/>
    </input>

    <output>
        <netstate-dump value="test.log"/>
        <fcd-output value="Town01_Car100_4.log"/>
    </output>

    <time>
        <begin value="0"/>
        <end value="10000"/>
    </time>

</configuration>
-->

<fcd-export xmlns:xsi="http://www.w3.org/2001/XMLSchema-instance" xsi:noNamespaceSchemaLocation="http://sumo.dlr.de/xsd/fcd_file.xsd">
    <timestep time="0.00">
        <vehicle id="0" x="391.20" y="5.22" angle="194.33" type="DEFAULT_VEHTYPE" speed="0.00" pos="5.10" lane="-14.0.00_0" slope="0.00"/>
    </timestep>
    <timestep time="1.00">
        <vehicle id="0" x="390.33" y="4.17" angle="204.67" type="DEFAULT_VEHTYPE" speed="1.38" pos="6.48" lane="-14.0.00_0" slope="0.00"/>
        <vehicle id="1" x="320.59" y="330.62" angle="270.00" type="DEFAULT_VEHTYPE" speed="0.00" pos="5.10" lane="-1.0.00_0" slope="0.00"/>
    </timestep>
    <timestep time="2.00">
        <vehicle id="0" x="388.05" y="2.73" angle="228.19" type="DEFAULT_VEHTYPE" speed="2.70" pos="9.18" lane="-14.0.00_0" slope="0.00"/>
        <vehicle id="1" x="318.86" y="330.63" angle="270.06" type="DEFAULT_VEHTYPE" speed="1.73" pos="6.83" lane="-1.0.00_0" slope="0.00"/>
        <vehicle id="2" x="334.92" y="254.48" angle="180.03" type="DEFAULT_VEHTYPE" speed="0.00" pos="5.10" lane="-17.0.00_0" slope="0.00"/>
    </timestep>
    <timestep time="3.00">
        <vehicle id="0" x="384.02" y="2.00" angle="257.37" type="DEFAULT_VEHTYPE" speed="4.14" pos="0.29" lane=":7.14_0_0" slope="0.00"/>
        <vehicle id="1" x="315.63" y="330.63" angle="270.11" type="DEFAULT_VEHTYPE" speed="3.23" pos="10.06" lane="-1.0.00_0" slope="0.00"/>
        <vehicle id="2" x="334.92" y="253.16" angle="180.03" type="DEFAULT_VEHTYPE" speed="1.32" pos="6.42" lane="-17.0.00_0" slope="0.00"/>
        <vehicle id="3" x="92.46" y="147.39" angle="359.99" type="DEFAULT_VEHTYPE" speed="0.00" pos="5.10" lane="23.0.00_0" slope="0.00"/>
    </timestep>
    <timestep time="4.00">
        <vehicle id="0" x="377.67" y="2.00" angle="270.00" type="DEFAULT_VEHTYPE" speed="6.34" pos="6.31" lane="7.0.00_0" slope="0.00"/>
        <vehicle id="1" x="309.81" y="330.63" angle="270.00" type="DEFAULT_VEHTYPE" speed="5.82" pos="15.88" lane="-1.0.00_0" slope="0.00"/>
        <vehicle id="2" x="334.91" y="249.96" angle="180.03" type="DEFAULT_VEHTYPE" speed="3.20" pos="9.62" lane="-17.0.00_0" slope="0.00"/>
        <vehicle id="3" x="92.46" y="149.40" angle="359.99" type="DEFAULT_VEHTYPE" speed="2.01" pos="7.11" lane="23.0.00_0" slope="0.00"/>
        <vehicle id="4" x="395.62" y="323.75" angle="350.47" type="DEFAULT_VEHTYPE" speed="0.00" pos="5.10" lane="11.0.00_0" slope="0.00"/>
    </timestep>
    <timestep time="5.00">
        <vehicle id="0" x="368.82" y="2.00" angle="270.00" type="DEFAULT_VEHTYPE" speed="8.85" pos="15.16" lane="7.0.00_0" slope="0.00"/>
        <vehicle id="1" x="301.59" y="330.63" angle="270.00" type="DEFAULT_VEHTYPE" speed="8.22" pos="24.10" lane="-1.0.00_0" slope="0.00"/>
        <vehicle id="2" x="334.91" y="244.74" angle="180.03" type="DEFAULT_VEHTYPE" speed="5.22" pos="14.84" lane="-17.0.00_0" slope="0.00"/>
        <vehicle id="3" x="92.46" y="153.24" angle="359.99" type="DEFAULT_VEHTYPE" speed="3.84" pos="10.95" lane="23.0.00_0" slope="0.00"/>
        <vehicle id="4" x="394.38" y="326.01" angle="337.67" type="DEFAULT_VEHTYPE" speed="2.60" pos="7.70" lane="11.0.00_0" slope="0.00"/>
    </timestep>
    <timestep time="6.00">
        <vehicle id="0" x="357.85" y="2.00" angle="270.00" type="DEFAULT_VEHTYPE" speed="10.97" pos="26.13" lane="7.0.00_0" slope="0.00"/>
        <vehicle id="1" x="291.08" y="330.64" angle="270.00" type="DEFAULT_VEHTYPE" speed="10.51" pos="34.61" lane="-1.0.00_0" slope="0.00"/>
        <vehicle id="2" x="334.91" y="237.84" angle="180.03" type="DEFAULT_VEHTYPE" speed="6.90" pos="21.74" lane="-17.0.00_0" slope="0.00"/>
        <vehicle id="3" x="92.46" y="158.61" angle="359.99" type="DEFAULT_VEHTYPE" speed="5.37" pos="16.32" lane="23.0.00_0" slope="0.00"/>
        <vehicle id="4" x="390.87" y="329.20" angle="312.65" type="DEFAULT_VEHTYPE" speed="4.79" pos="12.49" lane="11.0.00_0" slope="0.00"/>
        <vehicle id="5" x="92.46" y="147.39" angle="359.99" type="DEFAULT_VEHTYPE" speed="0.00" pos="5.10" lane="23.0.00_0" slope="0.00"/>
        <vehicle id="6" x="106.55" y="269.11" angle="89.99" type="DEFAULT_VEHTYPE" speed="0.00" pos="5.10" lane="-9.0.00_0" slope="0.00"/>
    </timestep>
    <timestep time="7.00">
        <vehicle id="0" x="345.54" y="2.00" angle="270.00" type="DEFAULT_VEHTYPE" speed="12.31" pos="2.25" lane=":60_3_0" slope="0.00"/>
        <vehicle id="1" x="278.23" y="330.64" angle="270.00" type="DEFAULT_VEHTYPE" speed="12.85" pos="47.46" lane="-1.0.00_0" slope="0.00"/>
        <vehicle id="2" x="334.90" y="228.65" angle="180.03" type="DEFAULT_VEHTYPE" speed="9.19" pos="30.93" lane="-17.0.00_0" slope="0.00"/>
        <vehicle id="3" x="92.45" y="166.40" angle="359.99" type="DEFAULT_VEHTYPE" speed="7.80" pos="24.12" lane="23.0.00_0" slope="0.00"/>
        <vehicle id="4" x="384.64" y="330.59" angle="279.06" type="DEFAULT_VEHTYPE" speed="6.47" pos="0.01" lane="-0.0.00_0" slope="0.00"/>
        <vehicle id="5" x="92.46" y="148.83" angle="359.99" type="DEFAULT_VEHTYPE" speed="1.44" pos="6.54" lane="23.0.00_0" slope="0.00"/>
        <vehicle id="6" x="108.10" y="269.11" angle="89.99" type="DEFAULT_VEHTYPE" speed="1.55" pos="6.65" lane="-9.0.00_0" slope="0.00"/>
        <vehicle id="7" x="334.87" y="179.84" angle="180.03" type="DEFAULT_VEHTYPE" speed="0.00" pos="5.10" lane="-18.0.00_0" slope="0.00"/>
    </timestep>
    <timestep time="8.00">
        <vehicle id="0" x="332.08" y="2.00" angle="270.00" type="DEFAULT_VEHTYPE" speed="13.46" pos="15.71" lane=":60_3_0" slope="0.00"/>
        <vehicle id="1" x="265.76" y="330.64" angle="270.00" type="DEFAULT_VEHTYPE" speed="12.47" pos="59.93" lane="-1.0.00_0" slope="0.00"/>
        <vehicle id="2" x="334.90" y="218.04" angle="180.03" type="DEFAULT_VEHTYPE" speed="10.61" pos="41.54" lane="-17.0.00_0" slope="0.00"/>
        <vehicle id="3" x="92.45" y="175.96" angle="359.99" type="DEFAULT_VEHTYPE" speed="9.56" pos="33.68" lane="23.0.00_0" slope="0.00"/>
        <vehicle id="4" x="376.58" y="330.59" angle="270.03" type="DEFAULT_VEHTYPE" speed="8.05" pos="8.07" lane="-0.0.00_0" slope="0.00"/>
        <vehicle id="5" x="92.46" y="151.71" angle="359.99" type="DEFAULT_VEHTYPE" speed="2.87" pos="9.42" lane="23.0.00_0" slope="0.00"/>
        <vehicle id="6" x="111.29" y="269.11" angle="89.99" type="DEFAULT_VEHTYPE" speed="3.19" pos="9.84" lane="-9.0.00_0" slope="0.00"/>
        <vehicle id="7" x="334.87" y="178.13" angle="180.03" type="DEFAULT_VEHTYPE" speed="1.71" pos="6.81" lane="-18.0.00_0" slope="0.00"/>
        <vehicle id="8" x="396.41" y="15.17" angle="0.00" type="DEFAULT_VEHTYPE" speed="0.00" pos="5.10" lane="-8.0.00_0" slope="0.00"/>
    </timestep>
    <timestep time="9.00">
        <vehicle id="0" x="317.89" y="2.00" angle="270.00" type="DEFAULT_VEHTYPE" speed="14.18" pos="7.89" lane="6.0.00_0" slope="0.00"/>
        <vehicle id="1" x="253.36" y="330.64" angle="270.00" type="DEFAULT_VEHTYPE" speed="12.40" pos="72.33" lane="-1.0.00_0" slope="0.00"/>
        <vehicle id="2" x="334.89" y="204.95" angle="180.04" type="DEFAULT_VEHTYPE" speed="13.09" pos="3.08" lane=":139_1_0" slope="0.00"/>
        <vehicle id="3" x="92.45" y="186.09" angle="359.99" type="DEFAULT_VEHTYPE" speed="10.14" pos="43.81" lane="23.0.00_0" slope="0.00"/>
        <vehicle id="4" x="366.15" y="330.60" angle="270.03" type="DEFAULT_VEHTYPE" speed="10.43" pos="18.50" lane="-0.0.00_0" slope="0.00"/>
        <vehicle id="5" x="92.46" y="156.73" angle="359.99" type="DEFAULT_VEHTYPE" speed="5.03" pos="14.45" lane="23.0.00_0" slope="0.00"/>
        <vehicle id="6" x="116.36" y="269.11" angle="89.99" type="DEFAULT_VEHTYPE" speed="5.06" pos="14.91" lane="-9.0.00_0" slope="0.00"/>
        <vehicle id="7" x="334.86" y="173.89" angle="180.03" type="DEFAULT_VEHTYPE" speed="4.24" pos="11.05" lane="-18.0.00_0" slope="0.00"/>
        <vehicle id="8" x="396.41" y="16.49" angle="0.00" type="DEFAULT_VEHTYPE" speed="1.32" pos="6.42" lane="-8.0.00_0" slope="0.00"/>
        <vehicle id="9" x="378.88" y="2.00" angle="270.00" type="DEFAULT_VEHTYPE" speed="0.00" pos="5.10" lane="7.0.00_0" slope="0.00"/>
    </timestep>
    <timestep time="10.00">
        <vehicle id="0" x="304.11" y="2.00" angle="270.00" type="DEFAULT_VEHTYPE" speed="13.79" pos="21.67" lane="6.0.00_0" slope="0.00"/>
        <vehicle id="1" x="240.89" y="330.65" angle="270.11" type="DEFAULT_VEHTYPE" speed="12.47" pos="84.80" lane="-1.0.00_0" slope="0.00"/>
        <vehicle id="10" x="106.58" y="129.47" angle="90.01" type="DEFAULT_VEHTYPE" speed="0.00" pos="5.10" lane="-12.0.00_0" slope="0.00"/>
        <vehicle id="2" x="334.88" y="193.82" angle="180.05" type="DEFAULT_VEHTYPE" speed="11.13" pos="14.21" lane=":139_1_0" slope="0.00"/>
        <vehicle id="3" x="94.80" y="193.14" angle="24.80" type="DEFAULT_VEHTYPE" speed="7.63" pos="6.96" lane=":156_4_0" slope="0.00"/>
        <vehicle id="4" x="354.11" y="330.61" angle="270.03" type="DEFAULT_VEHTYPE" speed="12.04" pos="30.54" lane="-0.0.00_0" slope="0.00"/>
        <vehicle id="5" x="92.46" y="163.23" angle="359.99" type="DEFAULT_VEHTYPE" speed="6.50" pos="20.95" lane="23.0.00_0" slope="0.00"/>
        <vehicle id="6" x="122.93" y="269.11" angle="89.99" type="DEFAULT_VEHTYPE" speed="6.58" pos="21.48" lane="-9.0.00_0" slope="0.00"/>
        <vehicle id="7" x="334.86" y="167.63" angle="180.03" type="DEFAULT_VEHTYPE" speed="6.26" pos="17.31" lane="-18.0.00_0" slope="0.00"/>
        <vehicle id="8" x="396.41" y="20.31" angle="0.00" type="DEFAULT_VEHTYPE" speed="3.82" pos="10.24" lane="-8.0.00_0" slope="0.00"/>
        <vehicle id="9" x="377.25" y="2.00" angle="270.00" type="DEFAULT_VEHTYPE" speed="1.63" pos="6.73" lane="7.0.00_0" slope="0.00"/>
    </timestep>
    <timestep time="11.00">
        <vehicle id="0" x="289.62" y="2.00" angle="270.00" type="DEFAULT_VEHTYPE" speed="14.49" pos="36.16" lane="6.0.00_0" slope="0.00"/>
        <vehicle id="1" x="228.61" y="330.65" angle="270.00" type="DEFAULT_VEHTYPE" speed="12.29" pos="97.08" lane="-1.0.00_0" slope="0.00"/>
        <vehicle id="10" x="108.50" y="129.47" angle="90.01" type="DEFAULT_VEHTYPE" speed="1.92" pos="7.02" lane="-12.0.00_0" slope="0.00"/>
        <vehicle id="11" x="74.37" y="2.03" angle="270.03" type="DEFAULT_VEHTYPE" speed="0.00" pos="5.10" lane="5.0.00_0" slope="0.00"/>
        <vehicle id="2" x="334.87" y="182.58" angle="180.04" type="DEFAULT_VEHTYPE" speed="11.23" pos="2.36" lane="-18.0.00_0" slope="0.00"/>
        <vehicle id="3" x="102.10" y="195.20" angle="81.63" type="DEFAULT_VEHTYPE" speed="7.73" pos="0.62" lane="-4.0.00_0" slope="0.00"/>
        <vehicle id="4" x="345.32" y="330.20" angle="265.33" type="DEFAULT_VEHTYPE" speed="8.82" pos="3.00" lane=":43_1_0" slope="0.00"/>
        <vehicle id="5" x="92.45" y="172.02" angle="359.99" type="DEFAULT_VEHTYPE" speed="8.79" pos="29.73" lane="23.0.00_0" slope="0.00"/>
        <vehicle id="6" x="131.56" y="269.12" angle="89.99" type="DEFAULT_VEHTYPE" speed="8.62" pos="30.11" lane="-9.0.00_0" slope="0.00"/>
        <vehicle id="7" x="334.86" y="160.07" angle="180.03" type="DEFAULT_VEHTYPE" speed="7.56" pos="24.87" lane="-18.0.00_0" slope="0.00"/>
        <vehicle id="8" x="396.40" y="26.39" angle="359.89" type="DEFAULT_VEHTYPE" speed="6.09" pos="16.32" lane="-8.0.00_0" slope="0.00"/>
        <vehicle id="9" x="374.26" y="2.00" angle="270.00" type="DEFAULT_VEHTYPE" speed="2.99" pos="9.72" lane="7.0.00_0" slope="0.00"/>
    </timestep>
    <timestep time="12.00">
        <vehicle id="0" x="274.92" y="2.00" angle="270.00" type="DEFAULT_VEHTYPE" speed="14.70" pos="50.86" lane="6.0.00_0" slope="0.00"/>
        <vehicle id="1" x="216.20" y="330.65" angle="270.00" type="DEFAULT_VEHTYPE" speed="12.40" pos="109.49" lane="-1.0.00_0" slope="0.00"/>
        <vehicle id="10" x="112.14" y="129.47" angle="90.01" type="DEFAULT_VEHTYPE" speed="3.64" pos="10.66" lane="-12.0.00_0" slope="0.00"/>
        <vehicle id="11" x="73.01" y="2.03" angle="270.03" type="DEFAULT_VEHTYPE" speed="1.36" pos="6.46" lane="5.0.00_0" slope="0.00"/>
        <vehicle id="12" x="92.44" y="287.56" angle="359.98" type="DEFAULT_VEHTYPE" speed="0.00" pos="5.10" lane="21.0.00_0" slope="0.00"/>
        <vehicle id="2" x="334.86" y="173.33" angle="180.03" type="DEFAULT_VEHTYPE" speed="9.26" pos="11.62" lane="-18.0.00_0" slope="0.00"/>
        <vehicle id="3" x="111.96" y="195.19" angle="90.03" type="DEFAULT_VEHTYPE" speed="9.86" pos="10.48" lane="-4.0.00_0" slope="0.00"/>
        <vehicle id="4" x="341.21" y="329.09" angle="255.90" type="DEFAULT_VEHTYPE" speed="4.32" pos="7.32" lane=":43_1_0" slope="0.00"/>
        <vehicle id="5" x="92.45" y="182.83" angle="359.99" type="DEFAULT_VEHTYPE" speed="10.82" pos="40.55" lane="23.0.00_0" slope="0.00"/>
        <vehicle id="6" x="142.30" y="269.12" angle="89.99" type="DEFAULT_VEHTYPE" speed="10.74" pos="40.85" lane="-9.0.00_0" slope="0.00"/>
        <vehicle id="7" x="334.85" y="150.92" angle="180.03" type="DEFAULT_VEHTYPE" speed="9.16" pos="34.03" lane="-18.0.00_0" slope="0.00"/>
        <vehicle id="8" x="396.40" y="34.27" angle="0.00" type="DEFAULT_VEHTYPE" speed="7.88" pos="24.20" lane="-8.0.00_0" slope="0.00"/>
        <vehicle id="9" x="369.16" y="2.00" angle="270.00" type="DEFAULT_VEHTYPE" speed="5.10" pos="14.82" lane="7.0.00_0" slope="0.00"/>
    </timestep>
    <timestep time="13.00">
        <vehicle id="0" x="260.36" y="2.00" angle="270.00" type="DEFAULT_VEHTYPE" speed="14.55" pos="65.42" lane="6.0.00_0" slope="0.00"/>
        <vehicle id="1" x="203.99" y="330.65" angle="270.00" type="DEFAULT_VEHTYPE" speed="12.21" pos="121.70" lane="-1.0.00_0" slope="0.00"/>
        <vehicle id="10" x="117.78" y="129.47" angle="90.01" type="DEFAULT_VEHTYPE" speed="5.64" pos="16.30" lane="-12.0.00_0" slope="0.00"/>
        <vehicle id="11" x="70.15" y="2.04" angle="270.03" type="DEFAULT_VEHTYPE" speed="2.86" pos="9.32" lane="5.0.00_0" slope="0.00"/>
        <vehicle id="12" x="92.44" y="289.15" angle="359.98" type="DEFAULT_VEHTYPE" speed="1.60" pos="6.70" lane="21.0.00_0" slope="0.00"/>
        <vehicle id="13" x="378.88" y="2.00" angle="270.00" type="DEFAULT_VEHTYPE" speed="0.00" pos="5.10" lane="7.0.00_0" slope="0.00"/>
        <vehicle id="2" x="334.86" y="163.35" angle="180.03" type="DEFAULT_VEHTYPE" speed="9.97" pos="21.59" lane="-18.0.00_0" slope="0.00"/>
        <vehicle id="3" x="123.59" y="195.19" angle="90.03" type="DEFAULT_VEHTYPE" speed="11.63" pos="22.11" lane="-4.0.00_0" slope="0.00"/>
        <vehicle id="4" x="336.88" y="325.16" angle="225.15" type="DEFAULT_VEHTYPE" speed="6.03" pos="5.06" lane=":43_6_0" slope="0.00"/>
        <vehicle id="5" x="92.45" y="194.10" angle="0.00" type="DEFAULT_VEHTYPE" speed="11.26" pos="7.33" lane=":156_5_0" slope="0.00"/>
        <vehicle id="6" x="154.43" y="269.12" angle="90.00" type="DEFAULT_VEHTYPE" speed="12.13" pos="9.38" lane=":167_4_0" slope="0.00"/>
        <vehicle id="7" x="334.85" y="143.97" angle="180.03" type="DEFAULT_VEHTYPE" speed="6.94" pos="40.97" lane="-18.0.00_0" slope="0.00"/>
        <vehicle id="8" x="396.40" y="44.39" angle="0.00" type="DEFAULT_VEHTYPE" speed="10.11" pos="34.32" lane="-8.0.00_0" slope="0.00"/>
        <vehicle id="9" x="361.93" y="2.00" angle="270.00" type="DEFAULT_VEHTYPE" speed="7.23" pos="22.05" lane="7.0.00_0" slope="0.00"/>
    </timestep>
    <timestep time="14.00">
        <vehicle id="0" x="245.78" y="2.00" angle="270.00" type="DEFAULT_VEHTYPE" speed="14.58" pos="80.00" lane="6.0.00_0" slope="0.00"/>
        <vehicle id="1" x="191.23" y="330.65" angle="270.00" type="DEFAULT_VEHTYPE" speed="12.76" pos="134.46" lane="-1.0.00_0" slope="0.00"/>
        <vehicle id="10" x="125.87" y="129.47" angle="90.01" type="DEFAULT_VEHTYPE" speed="8.09" pos="24.39" lane="-12.0.00_0" slope="0.00"/>
        <vehicle id="11" x="65.83" y="2.04" angle="270.03" type="DEFAULT_VEHTYPE" speed="4.32" pos="13.64" lane="5.0.00_0" slope="0.00"/>
        <vehicle id="12" x="92.44" y="292.61" angle="359.98" type="DEFAULT_VEHTYPE" speed="3.46" pos="10.15" lane="21.0.00_0" slope="0.00"/>
        <vehicle id="13" x="377.13" y="2.00" angle="270.00" type="DEFAULT_VEHTYPE" speed="1.75" pos="6.85" lane="7.0.00_0" slope="0.00"/>
        <vehicle id="14" x="139.95" y="273.12" angle="269.99" type="DEFAULT_VEHTYPE" speed="0.00" pos="5.10" lane="9.0.00_0" slope="0.00"/>
        <vehicle id="2" x="334.86" y="154.20" angle="180.03" type="DEFAULT_VEHTYPE" speed="9.16" pos="30.75" lane="-18.0.00_0" slope="0.00"/>
        <vehicle id="3" x="137.54" y="195.18" angle="90.03" type="DEFAULT_VEHTYPE" speed="13.96" pos="36.07" lane="-4.0.00_0" slope="0.00"/>
        <vehicle id="4" x="334.95" y="317.76" angle="188.43" type="DEFAULT_VEHTYPE" speed="7.78" pos="0.06" lane="-16.0.00_0" slope="0.00"/>
        <vehicle id="5" x="92.45" y="205.12" angle="0.00" type="DEFAULT_VEHTYPE" speed="11.02" pos="18.35" lane=":156_5_0" slope="0.00"/>
        <vehicle id="6" x="168.57" y="269.12" angle="90.00" type="DEFAULT_VEHTYPE" speed="14.14" pos="1.34" lane="-10.0.00_0" slope="0.00"/>
        <vehicle id="7" x="333.85" y="138.05" angle="191.58" type="DEFAULT_VEHTYPE" speed="6.08" pos="5.06" lane=":94_0_0" slope="0.00"/>
        <vehicle id="8" x="396.39" y="57.09" angle="0.00" type="DEFAULT_VEHTYPE" speed="12.70" pos="47.02" lane="-8.0.00_0" slope="0.00"/>
        <vehicle id="9" x="353.36" y="2.00" angle="270.00" type="DEFAULT_VEHTYPE" speed="8.57" pos="30.62" lane="7.0.00_0" slope="0.00"/>
    </timestep>
    <timestep time="15.00">
        <vehicle id="0" x="232.26" y="2.01" angle="270.00" type="DEFAULT_VEHTYPE" speed="13.52" pos="93.52" lane="6.0.00_0" slope="0.00"/>
        <vehicle id="1" x="178.82" y="330.65" angle="270.00" type="DEFAULT_VEHTYPE" speed="12.41" pos="146.87" lane="-1.0.00_0" slope="0.00"/>
        <vehicle id="10" x="136.15" y="129.47" angle="90.01" type="DEFAULT_VEHTYPE" speed="10.28" pos="34.67" lane="-12.0.00_0" slope="0.00"/>
        <vehicle id="11" x="58.96" y="2.04" angle="270.03" type="DEFAULT_VEHTYPE" speed="6.87" pos="20.51" lane="5.0.00_0" slope="0.00"/>
        <vehicle id="12" x="92.44" y="298.60" angle="359.98" type="DEFAULT_VEHTYPE" speed="5.99" pos="16.14" lane="21.0.00_0" slope="0.00"/>
        <vehicle id="13" x="374.05" y="2.00" angle="270.00" type="DEFAULT_VEHTYPE" speed="3.07" pos="9.93" lane="7.0.00_0" slope="0.00"/>
        <vehicle id="14" x="137.43" y="273.12" angle="269.99" type="DEFAULT_VEHTYPE" speed="2.52" pos="7.62" lane="9.0.00_0" slope="0.00"/>
        <vehicle id="15" x="-1.04" y="5.80" angle="169.63" type="DEFAULT_VEHTYPE" speed="0.00" pos="5.10" lane="20.0.00_0" slope="0.00"/>
        <vehicle id="2" x="334.85" y="147.07" angle="180.03" type="DEFAULT_VEHTYPE" speed="7.13" pos="37.88" lane="-18.0.00_0" slope="0.00"/>
        <vehicle id="3" x="152.56" y="195.17" angle="90.03" type="DEFAULT_VEHTYPE" speed="15.01" pos="51.08" lane="-4.0.00_0" slope="0.00"/>
        <vehicle id="4" x="334.94" y="308.19" angle="180.03" type="DEFAULT_VEHTYPE" speed="9.57" pos="9.63" lane="-16.0.00_0" slope="0.00"/>
        <vehicle id="5" x="92.45" y="216.64" angle="359.99" type="DEFAULT_VEHTYPE" speed="11.52" pos="7.87" lane="22.0.00_0" slope="0.00"/>
        <vehicle id="6" x="182.38" y="269.12" angle="89.99" type="DEFAULT_VEHTYPE" speed="13.81" pos="15.14" lane="-10.0.00_0" slope="0.00"/>
        <vehicle id="7" x="329.61" y="134.02" angle="230.00" type="DEFAULT_VEHTYPE" speed="6.04" pos="11.10" lane=":94_0_0" slope="0.00"/>
        <vehicle id="8" x="396.39" y="69.83" angle="0.00" type="DEFAULT_VEHTYPE" speed="12.75" pos="59.76" lane="-8.0.00_0" slope="0.00"/>
        <vehicle id="9" x="342.66" y="2.00" angle="270.00" type="DEFAULT_VEHTYPE" speed="10.70" pos="5.13" lane=":60_3_0" slope="0.00"/>
    </timestep>
    <timestep time="16.00">
        <vehicle id="0" x="217.79" y="2.01" angle="270.00" type="DEFAULT_VEHTYPE" speed="14.47" pos="107.99" lane="6.0.00_0" slope="0.00"/>
        <vehicle id="1" x="168.45" y="330.65" angle="270.00" type="DEFAULT_VEHTYPE" speed="10.37" pos="157.24" lane="-1.0.00_0" slope="0.00"/>
        <vehicle id="10" x="148.32" y="129.47" angle="90.01" type="DEFAULT_VEHTYPE" speed="12.17" pos="46.84" lane="-12.0.00_0" slope="0.00"/>
        <vehicle id="11" x="50.03" y="2.05" angle="270.03" type="DEFAULT_VEHTYPE" speed="8.93" pos="29.44" lane="5.0.00_0" slope="0.00"/>
        <vehicle id="12" x="92.43" y="306.34" angle="359.98" type="DEFAULT_VEHTYPE" speed="7.75" pos="23.89" lane="21.0.00_0" slope="0.00"/>
        <vehicle id="13" x="369.43" y="2.00" angle="270.00" type="DEFAULT_VEHTYPE" speed="4.62" pos="14.55" lane="7.0.00_0" slope="0.00"/>
        <vehicle id="14" x="133.28" y="273.12" angle="269.99" type="DEFAULT_VEHTYPE" speed="4.15" pos="11.77" lane="9.0.00_0" slope="0.00"/>
        <vehicle id="15" x="-0.46" y="4.53" angle="164.02" type="DEFAULT_VEHTYPE" speed="1.40" pos="6.50" lane="20.0.00_0" slope="0.00"/>
        <vehicle id="16" x="389.29" y="-1.11" angle="79.65" type="DEFAULT_VEHTYPE" speed="0.00" pos="5.10" lane="14.0.00_0" slope="0.00"/>
        <vehicle id="2" x="334.85" y="141.34" angle="180.03" type="DEFAULT_VEHTYPE" speed="5.74" pos="1.62" lane=":94_1_0" slope="0.00"/>
        <vehicle id="3" x="166.81" y="195.17" angle="90.03" type="DEFAULT_VEHTYPE" speed="14.26" pos="65.34" lane="-4.0.00_0" slope="0.00"/>
        <vehicle id="4" x="334.94" y="296.51" angle="180.03" type="DEFAULT_VEHTYPE" speed="11.68" pos="21.31" lane="-16.0.00_0" slope="0.00"/>
        <vehicle id="5" x="92.45" y="227.30" angle="359.99" type="DEFAULT_VEHTYPE" speed="10.66" pos="18.53" lane="22.0.00_0" slope="0.00"/>
        <vehicle id="6" x="196.24" y="269.12" angle="89.99" type="DEFAULT_VEHTYPE" speed="13.87" pos="29.01" lane="-10.0.00_0" slope="0.00"/>
        <vehicle id="7" x="323.25" y="133.45" angle="265.76" type="DEFAULT_VEHTYPE" speed="6.39" pos="2.48" lane="12.0.00_0" slope="0.00"/>
        <vehicle id="8" x="396.38" y="82.35" angle="0.00" type="DEFAULT_VEHTYPE" speed="12.52" pos="72.28" lane="-8.0.00_0" slope="0.00"/>
        <vehicle id="9" x="331.58" y="2.00" angle="270.00" type="DEFAULT_VEHTYPE" speed="11.07" pos="16.21" lane=":60_3_0" slope="0.00"/>
    </timestep>
    <timestep time="17.00">
        <vehicle id="0" x="203.15" y="2.01" angle="270.00" type="DEFAULT_VEHTYPE" speed="14.64" pos="122.63" lane="6.0.00_0" slope="0.00"/>
        <vehicle id="1" x="162.00" y="329.85" angle="262.56" type="DEFAULT_VEHTYPE" speed="6.51" pos="6.19" lane=":26_1_0" slope="0.00"/>
        <vehicle id="10" x="162.76" y="129.46" angle="90.01" type="DEFAULT_VEHTYPE" speed="14.43" pos="61.27" lane="-12.0.00_0" slope="0.00"/>
        <vehicle id="11" x="38.69" y="2.05" angle="270.03" type="DEFAULT_VEHTYPE" speed="11.34" pos="40.78" lane="5.0.00_0" slope="0.00"/>
        <vehicle id="12" x="92.43" y="313.61" angle="359.98" type="DEFAULT_VEHTYPE" speed="7.27" pos="31.16" lane="21.0.00_0" slope="0.00"/>
        <vehicle id="13" x="363.36" y="2.00" angle="270.00" type="DEFAULT_VEHTYPE" speed="6.07" pos="20.62" lane="7.0.00_0" slope="0.00"/>
        <vehicle id="14" x="127.58" y="273.12" angle="269.99" type="DEFAULT_VEHTYPE" speed="5.70" pos="17.47" lane="9.0.00_0" slope="0.00"/>
        <vehicle id="15" x="1.44" y="1.68" angle="149.22" type="DEFAULT_VEHTYPE" speed="3.44" pos="9.94" lane="20.0.00_0" slope="0.00"/>
        <vehicle id="16" x="391.11" y="-0.22" angle="70.28" type="DEFAULT_VEHTYPE" speed="2.03" pos="7.13" lane="14.0.00_0" slope="0.00"/>
        <vehicle id="2" x="334.84" y="133.96" angle="180.05" type="DEFAULT_VEHTYPE" speed="7.37" pos="9.00" lane=":94_1_0" slope="0.00"/>
        <vehicle id="3" x="181.45" y="195.16" angle="90.03" type="DEFAULT_VEHTYPE" speed="14.64" pos="79.98" lane="-4.0.00_0" slope="0.00"/>
        <vehicle id="4" x="334.93" y="283.40" angle="180.03" type="DEFAULT_VEHTYPE" speed="13.10" pos="34.42" lane="-16.0.00_0" slope="0.00"/>
        <vehicle id="5" x="92.44" y="238.44" angle="359.99" type="DEFAULT_VEHTYPE" speed="11.14" pos="29.67" lane="22.0.00_0" slope="0.00"/>
        <vehicle id="6" x="210.60" y="269.13" angle="89.99" type="DEFAULT_VEHTYPE" speed="14.35" pos="43.37" lane="-10.0.00_0" slope="0.00"/>
        <vehicle id="7" x="314.95" y="133.45" angle="270.01" type="DEFAULT_VEHTYPE" speed="8.30" pos="10.78" lane="12.0.00_0" slope="0.00"/>
        <vehicle id="8" x="396.38" y="94.39" angle="0.00" type="DEFAULT_VEHTYPE" speed="12.04" pos="84.32" lane="-8.0.00_0" slope="0.00"/>
        <vehicle id="9" x="319.83" y="2.00" angle="270.00" type="DEFAULT_VEHTYPE" speed="11.76" pos="5.95" lane="6.0.00_0" slope="0.00"/>
    </timestep>
    <timestep time="18.00">
        <vehicle id="0" x="188.98" y="2.01" angle="270.00" type="DEFAULT_VEHTYPE" speed="14.17" pos="136.80" lane="6.0.00_0" slope="0.00"/>
        <vehicle id="1" x="156.04" y="325.04" angle="225.06" type="DEFAULT_VEHTYPE" speed="7.88" pos="5.38" lane=":26_6_0" slope="0.00"/>
        <vehicle id="10" x="177.19" y="129.46" angle="90.01" type="DEFAULT_VEHTYPE" speed="14.44" pos="75.71" lane="-12.0.00_0" slope="0.00"/>
        <vehicle id="11" x="24.86" y="2.06" angle="270.03" type="DEFAULT_VEHTYPE" speed="13.83" pos="54.61" lane="5.0.00_0" slope="0.00"/>
        <vehicle id="12" x="93.07" y="321.68" angle="7.32" type="DEFAULT_VEHTYPE" speed="8.12" pos="3.79" lane=":77_2_0" slope="0.00"/>
        <vehicle id="13" x="355.53" y="2.00" angle="270.00" type="DEFAULT_VEHTYPE" speed="7.83" pos="28.45" lane="7.0.00_0" slope="0.00"/>
        <vehicle id="14" x="119.35" y="273.11" angle="269.99" type="DEFAULT_VEHTYPE" speed="8.23" pos="25.70" lane="9.0.00_0" slope="0.00"/>
        <vehicle id="15" x="5.58" y="-1.16" angle="124.24" type="DEFAULT_VEHTYPE" speed="5.09" pos="15.03" lane="20.0.00_0" slope="0.00"/>
        <vehicle id="16" x="394.10" y="2.38" angle="51.76" type="DEFAULT_VEHTYPE" speed="3.98" pos="11.11" lane="14.0.00_0" slope="0.00"/>
        <vehicle id="18" x="92.45" y="213.87" angle="359.99" type="DEFAULT_VEHTYPE" speed="0.00" pos="5.10" lane="22.0.00_0" slope="0.00"/>
        <vehicle id="2" x="334.83" y="124.85" angle="180.05" type="DEFAULT_VEHTYPE" speed="9.10" pos="18.10" lane=":94_1_0" slope="0.00"/>
        <vehicle id="3" x="195.56" y="195.15" angle="90.03" type="DEFAULT_VEHTYPE" speed="14.11" pos="94.08" lane="-4.0.00_0" slope="0.00"/>
        <vehicle id="4" x="334.92" y="269.39" angle="180.03" type="DEFAULT_VEHTYPE" speed="14.01" pos="12.81" lane=":111_1_0" slope="0.00"/>
        <vehicle id="5" x="92.44" y="248.84" angle="359.99" type="DEFAULT_VEHTYPE" speed="10.39" pos="40.06" lane="22.0.00_0" slope="0.00"/>
        <vehicle id="6" x="224.31" y="269.13" angle="89.99" type="DEFAULT_VEHTYPE" speed="13.71" pos="57.08" lane="-10.0.00_0" slope="0.00"/>
        <vehicle id="7" x="304.56" y="133.45" angle="270.01" type="DEFAULT_VEHTYPE" speed="10.39" pos="21.17" lane="12.0.00_0" slope="0.00"/>
        <vehicle id="8" x="396.38" y="106.21" angle="0.00" type="DEFAULT_VEHTYPE" speed="11.82" pos="96.14" lane="-8.0.00_0" slope="0.00"/>
        <vehicle id="9" x="308.21" y="2.00" angle="270.00" type="DEFAULT_VEHTYPE" speed="11.61" pos="17.57" lane="6.0.00_0" slope="0.00"/>
    </timestep>
    <timestep time="19.00">
        <vehicle id="0" x="174.38" y="2.01" angle="270.00" type="DEFAULT_VEHTYPE" speed="14.59" pos="151.40" lane="6.0.00_0" slope="0.00"/>
        <vehicle id="1" x="154.13" y="316.61" angle="186.67" type="DEFAULT_VEHTYPE" speed="8.81" pos="1.29" lane="-25.0.00_0" slope="0.00"/>
        <vehicle id="10" x="192.27" y="129.46" angle="90.01" type="DEFAULT_VEHTYPE" speed="15.07" pos="90.79" lane="-12.0.00_0" slope="0.00"/>
        <vehicle id="11" x="10.77" y="2.07" angle="270.03" type="DEFAULT_VEHTYPE" speed="14.08" pos="68.70" lane="5.0.00_0" slope="0.00"/>
        <vehicle id="12" x="99.94" y="326.32" angle="70.00" type="DEFAULT_VEHTYPE" speed="8.75" pos="12.54" lane=":77_2_0" slope="0.00"/>
        <vehicle id="13" x="345.72" y="2.00" angle="270.00" type="DEFAULT_VEHTYPE" speed="9.81" pos="2.07" lane=":60_3_0" slope="0.00"/>
        <vehicle id="14" x="109.90" y="273.11" angle="269.99" type="DEFAULT_VEHTYPE" speed="9.44" pos="35.15" lane="9.0.00_0" slope="0.00"/>
        <vehicle id="15" x="12.72" y="-1.93" angle="92.13" type="DEFAULT_VEHTYPE" speed="7.23" pos="2.50" lane="-5.0.00_0" slope="0.00"/>
        <vehicle id="16" x="396.36" y="8.40" angle="16.46" type="DEFAULT_VEHTYPE" speed="6.54" pos="17.66" lane="14.0.00_0" slope="0.00"/>
        <vehicle id="17" x="389.29" y="-1.11" angle="79.65" type="DEFAULT_VEHTYPE" speed="0.00" pos="5.10" lane="14.0.00_0" slope="0.00"/>
        <vehicle id="18" x="92.45" y="216.44" angle="359.99" type="DEFAULT_VEHTYPE" speed="2.57" pos="7.67" lane="22.0.00_0" slope="0.00"/>
        <vehicle id="19" x="338.77" y="16.26" angle="0.03" type="DEFAULT_VEHTYPE" speed="0.00" pos="5.10" lane="19.0.00_0" slope="0.00"/>
        <vehicle id="2" x="334.83" y="113.97" angle="180.03" type="DEFAULT_VEHTYPE" speed="10.87" pos="5.48" lane="-19.0.00_0" slope="0.00"/>
        <vehicle id="3" x="210.60" y="195.15" angle="90.03" type="DEFAULT_VEHTYPE" speed="15.04" pos="109.12" lane="-4.0.00_0" slope="0.00"/>
        <vehicle id="4" x="334.92" y="255.34" angle="180.03" type="DEFAULT_VEHTYPE" speed="14.05" pos="4.24" lane="-17.0.00_0" slope="0.00"/>
        <vehicle id="5" x="92.44" y="258.87" angle="359.99" type="DEFAULT_VEHTYPE" speed="10.03" pos="50.09" lane="22.0.00_0" slope="0.00"/>