<?xml version="1.0" encoding="UTF-8"?>

<!-- generated on Wed Aug 14 12:02:30 2019 by Eclipse SUMO Version 1.2.0
<configuration xmlns:xsi="http://www.w3.org/2001/XMLSchema-instance" xsi:noNamespaceSchemaLocation="http://sumo.dlr.de/xsd/sumoConfiguration.xsd">

    <input>
        <net-file value="Town01.net.xml"/>
        <route-files value="trips.trips.xml"/>
    </input>

    <output>
        <netstate-dump value="test.log"/>
        <fcd-output value="Town02_Car50_3.log"/>
    </output>

    <time>
        <begin value="0"/>
        <end value="10000"/>
    </time>

</configuration>
-->

<fcd-export xmlns:xsi="http://www.w3.org/2001/XMLSchema-instance" xsi:noNamespaceSchemaLocation="http://sumo.dlr.de/xsd/fcd_file.xsd">
    <timestep time="0.00">
        <vehicle id="0" x="139.92" y="330.66" angle="270.00" type="DEFAULT_VEHTYPE" speed="0.00" pos="5.10" lane="-2.0.00_0" slope="0.00"/>
    </timestep>
    <timestep time="1.00">
        <vehicle id="0" x="137.93" y="330.66" angle="270.00" type="DEFAULT_VEHTYPE" speed="1.99" pos="7.09" lane="-2.0.00_0" slope="0.00"/>
        <vehicle id="1" x="338.89" y="213.13" angle="0.03" type="DEFAULT_VEHTYPE" speed="0.00" pos="5.10" lane="17.0.00_0" slope="0.00"/>
    </timestep>
    <timestep time="2.00">
        <vehicle id="0" x="134.08" y="330.66" angle="270.00" type="DEFAULT_VEHTYPE" speed="3.84" pos="10.93" lane="-2.0.00_0" slope="0.00"/>
        <vehicle id="1" x="338.89" y="215.62" angle="0.03" type="DEFAULT_VEHTYPE" speed="2.49" pos="7.59" lane="17.0.00_0" slope="0.00"/>
        <vehicle id="2" x="320.60" y="199.09" angle="270.03" type="DEFAULT_VEHTYPE" speed="0.00" pos="5.10" lane="4.0.00_0" slope="0.00"/>
    </timestep>
    <timestep time="3.00">
        <vehicle id="0" x="127.69" y="330.66" angle="270.00" type="DEFAULT_VEHTYPE" speed="6.39" pos="17.33" lane="-2.0.00_0" slope="0.00"/>
        <vehicle id="1" x="338.90" y="219.98" angle="0.03" type="DEFAULT_VEHTYPE" speed="4.36" pos="11.95" lane="17.0.00_0" slope="0.00"/>
        <vehicle id="2" x="318.28" y="199.09" angle="270.03" type="DEFAULT_VEHTYPE" speed="2.32" pos="7.42" lane="4.0.00_0" slope="0.00"/>
        <vehicle id="3" x="395.62" y="323.75" angle="350.47" type="DEFAULT_VEHTYPE" speed="0.00" pos="5.10" lane="11.0.00_0" slope="0.00"/>
    </timestep>
    <timestep time="4.00">
        <vehicle id="0" x="119.88" y="330.66" angle="270.00" type="DEFAULT_VEHTYPE" speed="7.81" pos="25.13" lane="-2.0.00_0" slope="0.00"/>
        <vehicle id="1" x="338.90" y="226.88" angle="0.03" type="DEFAULT_VEHTYPE" speed="6.90" pos="18.85" lane="17.0.00_0" slope="0.00"/>
        <vehicle id="2" x="313.49" y="199.10" angle="270.03" type="DEFAULT_VEHTYPE" speed="4.78" pos="12.21" lane="4.0.00_0" slope="0.00"/>
        <vehicle id="3" x="394.38" y="326.01" angle="337.67" type="DEFAULT_VEHTYPE" speed="2.60" pos="7.70" lane="11.0.00_0" slope="0.00"/>
        <vehicle id="4" x="320.59" y="330.62" angle="270.00" type="DEFAULT_VEHTYPE" speed="0.00" pos="5.10" lane="-1.0.00_0" slope="0.00"/>
    </timestep>
    <timestep time="5.00">
        <vehicle id="0" x="110.43" y="330.66" angle="270.00" type="DEFAULT_VEHTYPE" speed="9.45" pos="34.59" lane="-2.0.00_0" slope="0.00"/>
        <vehicle id="1" x="338.91" y="236.00" angle="0.03" type="DEFAULT_VEHTYPE" speed="9.12" pos="27.97" lane="17.0.00_0" slope="0.00"/>
        <vehicle id="2" x="306.98" y="199.10" angle="270.03" type="DEFAULT_VEHTYPE" speed="6.51" pos="18.72" lane="4.0.00_0" slope="0.00"/>
        <vehicle id="3" x="390.87" y="329.20" angle="312.65" type="DEFAULT_VEHTYPE" speed="4.79" pos="12.49" lane="11.0.00_0" slope="0.00"/>
        <vehicle id="4" x="318.86" y="330.63" angle="270.06" type="DEFAULT_VEHTYPE" speed="1.73" pos="6.83" lane="-1.0.00_0" slope="0.00"/>
        <vehicle id="5" x="6.04" y="330.15" angle="264.42" type="DEFAULT_VEHTYPE" speed="0.00" pos="5.10" lane="13.0.00_0" slope="0.00"/>
    </timestep>
    <timestep time="6.00">
        <vehicle id="0" x="100.88" y="330.42" angle="267.26" type="DEFAULT_VEHTYPE" speed="9.56" pos="1.89" lane=":77_1_0" slope="0.00"/>
        <vehicle id="1" x="338.91" y="247.56" angle="0.03" type="DEFAULT_VEHTYPE" speed="11.55" pos="39.53" lane="17.0.00_0" slope="0.00"/>
        <vehicle id="2" x="298.68" y="199.10" angle="270.03" type="DEFAULT_VEHTYPE" speed="8.30" pos="27.02" lane="4.0.00_0" slope="0.00"/>
        <vehicle id="3" x="384.64" y="330.59" angle="279.06" type="DEFAULT_VEHTYPE" speed="6.47" pos="0.01" lane="-0.0.00_0" slope="0.00"/>
        <vehicle id="4" x="315.63" y="330.63" angle="270.11" type="DEFAULT_VEHTYPE" speed="3.23" pos="10.06" lane="-1.0.00_0" slope="0.00"/>
        <vehicle id="5" x="3.87" y="329.28" angle="254.58" type="DEFAULT_VEHTYPE" speed="2.34" pos="7.44" lane="13.0.00_0" slope="0.00"/>
    </timestep>
    <timestep time="7.00">
        <vehicle id="0" x="95.93" y="329.56" angle="260.15" type="DEFAULT_VEHTYPE" speed="5.06" pos="6.94" lane=":77_1_0" slope="0.00"/>
        <vehicle id="1" x="338.92" y="258.44" angle="0.03" type="DEFAULT_VEHTYPE" speed="10.89" pos="50.41" lane="17.0.00_0" slope="0.00"/>
        <vehicle id="2" x="288.69" y="199.11" angle="270.03" type="DEFAULT_VEHTYPE" speed="9.99" pos="37.01" lane="4.0.00_0" slope="0.00"/>
        <vehicle id="3" x="376.58" y="330.59" angle="270.03" type="DEFAULT_VEHTYPE" speed="8.05" pos="8.07" lane="-0.0.00_0" slope="0.00"/>
        <vehicle id="4" x="309.81" y="330.63" angle="270.00" type="DEFAULT_VEHTYPE" speed="5.82" pos="15.88" lane="-1.0.00_0" slope="0.00"/>
        <vehicle id="5" x="0.85" y="327.05" angle="236.64" type="DEFAULT_VEHTYPE" speed="3.78" pos="11.22" lane="13.0.00_0" slope="0.00"/>
        <vehicle id="7" x="391.10" y="323.72" angle="123.67" type="DEFAULT_VEHTYPE" speed="0.00" pos="5.10" lane="-11.0.00_0" slope="0.00"/>
    </timestep>
    <timestep time="8.00">
        <vehicle id="0" x="90.82" y="325.72" angle="230.08" type="DEFAULT_VEHTYPE" speed="6.57" pos="4.63" lane=":77_6_0" slope="0.00"/>
        <vehicle id="1" x="338.19" y="264.78" angle="352.03" type="DEFAULT_VEHTYPE" speed="6.39" pos="5.25" lane=":111_3_0" slope="0.00"/>
        <vehicle id="2" x="276.43" y="199.11" angle="270.03" type="DEFAULT_VEHTYPE" speed="12.26" pos="49.27" lane="4.0.00_0" slope="0.00"/>
        <vehicle id="3" x="366.15" y="330.60" angle="270.03" type="DEFAULT_VEHTYPE" speed="10.43" pos="18.50" lane="-0.0.00_0" slope="0.00"/>
        <vehicle id="4" x="301.59" y="330.63" angle="270.00" type="DEFAULT_VEHTYPE" speed="8.22" pos="24.10" lane="-1.0.00_0" slope="0.00"/>
        <vehicle id="5" x="-1.80" y="321.53" angle="202.58" type="DEFAULT_VEHTYPE" speed="6.23" pos="17.45" lane="13.0.00_0" slope="0.00"/>
        <vehicle id="6" x="379.55" y="330.59" angle="270.03" type="DEFAULT_VEHTYPE" speed="0.00" pos="5.10" lane="-0.0.00_0" slope="0.00"/>
        <vehicle id="7" x="392.15" y="321.51" angle="144.07" type="DEFAULT_VEHTYPE" speed="2.47" pos="7.57" lane="-11.0.00_0" slope="0.00"/>
        <vehicle id="8" x="352.89" y="-2.00" angle="90.00" type="DEFAULT_VEHTYPE" speed="0.00" pos="5.10" lane="-7.0.00_0" slope="0.00"/>
    </timestep>
    <timestep time="9.00">
        <vehicle id="0" x="88.44" y="318.02" angle="189.19" type="DEFAULT_VEHTYPE" speed="8.23" pos="12.86" lane=":77_6_0" slope="0.00"/>
        <vehicle id="1" x="333.76" y="270.89" angle="317.53" type="DEFAULT_VEHTYPE" speed="7.82" pos="4.76" lane=":111_6_0" slope="0.00"/>
        <vehicle id="2" x="263.51" y="199.12" angle="270.03" type="DEFAULT_VEHTYPE" speed="12.92" pos="62.19" lane="4.0.00_0" slope="0.00"/>
        <vehicle id="3" x="354.11" y="330.61" angle="270.03" type="DEFAULT_VEHTYPE" speed="12.04" pos="30.54" lane="-0.0.00_0" slope="0.00"/>
        <vehicle id="4" x="291.08" y="330.64" angle="270.00" type="DEFAULT_VEHTYPE" speed="10.51" pos="34.61" lane="-1.0.00_0" slope="0.00"/>
        <vehicle id="5" x="-1.97" y="313.54" angle="180.00" type="DEFAULT_VEHTYPE" speed="8.09" pos="5.11" lane="-15.0.00_0" slope="0.00"/>
        <vehicle id="6" x="377.30" y="330.59" angle="270.03" type="DEFAULT_VEHTYPE" speed="2.25" pos="7.35" lane="-0.0.00_0" slope="0.00"/>
        <vehicle id="7" x="392.44" y="317.65" angle="172.51" type="DEFAULT_VEHTYPE" speed="3.99" pos="1.11" lane="8.0.00_0" slope="0.00"/>
        <vehicle id="8" x="354.87" y="-2.00" angle="90.00" type="DEFAULT_VEHTYPE" speed="1.98" pos="7.08" lane="-7.0.00_0" slope="0.00"/>
        <vehicle id="9" x="320.59" y="330.62" angle="270.00" type="DEFAULT_VEHTYPE" speed="0.00" pos="5.10" lane="-1.0.00_0" slope="0.00"/>
    </timestep>
    <timestep time="10.00">
        <vehicle id="0" x="88.43" y="307.80" angle="179.98" type="DEFAULT_VEHTYPE" speed="10.22" pos="10.14" lane="-21.0.00_0" slope="0.00"/>
        <vehicle id="1" x="325.60" y="273.14" angle="278.20" type="DEFAULT_VEHTYPE" speed="8.63" pos="0.09" lane="10.0.00_0" slope="0.00"/>
        <vehicle id="10" x="3.17" y="323.51" angle="13.52" type="DEFAULT_VEHTYPE" speed="0.00" pos="5.10" lane="-13.0.00_0" slope="0.00"/>
        <vehicle id="2" x="249.86" y="199.13" angle="270.03" type="DEFAULT_VEHTYPE" speed="13.65" pos="75.84" lane="4.0.00_0" slope="0.00"/>
        <vehicle id="3" x="340.89" y="330.61" angle="270.03" type="DEFAULT_VEHTYPE" speed="13.22" pos="7.40" lane=":43_0_0" slope="0.00"/>
        <vehicle id="4" x="278.16" y="330.64" angle="270.00" type="DEFAULT_VEHTYPE" speed="12.93" pos="47.53" lane="-1.0.00_0" slope="0.00"/>
        <vehicle id="5" x="-1.98" y="302.89" angle="180.11" type="DEFAULT_VEHTYPE" speed="10.65" pos="15.76" lane="-15.0.00_0" slope="0.00"/>
        <vehicle id="6" x="372.91" y="330.60" angle="270.03" type="DEFAULT_VEHTYPE" speed="4.39" pos="11.74" lane="-0.0.00_0" slope="0.00"/>
        <vehicle id="7" x="392.43" y="311.24" angle="180.11" type="DEFAULT_VEHTYPE" speed="6.40" pos="7.52" lane="8.0.00_0" slope="0.00"/>
        <vehicle id="8" x="358.54" y="-2.00" angle="90.00" type="DEFAULT_VEHTYPE" speed="3.67" pos="10.75" lane="-7.0.00_0" slope="0.00"/>
        <vehicle id="9" x="318.55" y="330.63" angle="270.08" type="DEFAULT_VEHTYPE" speed="2.04" pos="7.14" lane="-1.0.00_0" slope="0.00"/>
    </timestep>
    <timestep time="11.00">
        <vehicle id="0" x="88.44" y="295.23" angle="179.98" type="DEFAULT_VEHTYPE" speed="12.58" pos="22.72" lane="-21.0.00_0" slope="0.00"/>
        <vehicle id="1" x="315.53" y="273.14" angle="269.99" type="DEFAULT_VEHTYPE" speed="10.07" pos="10.16" lane="10.0.00_0" slope="0.00"/>
        <vehicle id="10" x="4.51" y="324.95" angle="29.45" type="DEFAULT_VEHTYPE" speed="1.98" pos="7.08" lane="-13.0.00_0" slope="0.00"/>
        <vehicle id="11" x="107.85" y="326.66" angle="90.00" type="DEFAULT_VEHTYPE" speed="0.00" pos="5.10" lane="2.0.00_0" slope="0.00"/>
        <vehicle id="2" x="236.94" y="199.13" angle="270.03" type="DEFAULT_VEHTYPE" speed="12.92" pos="88.76" lane="4.0.00_0" slope="0.00"/>
        <vehicle id="3" x="332.18" y="330.62" angle="270.03" type="DEFAULT_VEHTYPE" speed="8.72" pos="16.11" lane=":43_0_0" slope="0.00"/>
        <vehicle id="4" x="264.48" y="330.64" angle="270.00" type="DEFAULT_VEHTYPE" speed="13.67" pos="61.21" lane="-1.0.00_0" slope="0.00"/>
        <vehicle id="5" x="-1.98" y="291.42" angle="180.00" type="DEFAULT_VEHTYPE" speed="11.47" pos="27.23" lane="-15.0.00_0" slope="0.00"/>
        <vehicle id="6" x="366.95" y="330.60" angle="270.03" type="DEFAULT_VEHTYPE" speed="5.95" pos="17.70" lane="-0.0.00_0" slope="0.00"/>
        <vehicle id="7" x="392.42" y="303.38" angle="180.11" type="DEFAULT_VEHTYPE" speed="7.86" pos="15.38" lane="8.0.00_0" slope="0.00"/>
        <vehicle id="8" x="363.53" y="-2.00" angle="90.00" type="DEFAULT_VEHTYPE" speed="5.00" pos="15.74" lane="-7.0.00_0" slope="0.00"/>
        <vehicle id="9" x="314.47" y="330.63" angle="270.09" type="DEFAULT_VEHTYPE" speed="4.08" pos="11.22" lane="-1.0.00_0" slope="0.00"/>
    </timestep>
    <timestep time="12.00">
        <vehicle id="0" x="88.44" y="281.75" angle="179.99" type="DEFAULT_VEHTYPE" speed="13.49" pos="0.71" lane=":184_0_0" slope="0.00"/>
        <vehicle id="1" x="302.92" y="273.14" angle="269.99" type="DEFAULT_VEHTYPE" speed="12.61" pos="22.76" lane="10.0.00_0" slope="0.00"/>
        <vehicle id="10" x="8.32" y="326.55" angle="64.56" type="DEFAULT_VEHTYPE" speed="4.19" pos="11.27" lane="-13.0.00_0" slope="0.00"/>
        <vehicle id="11" x="109.84" y="326.66" angle="90.00" type="DEFAULT_VEHTYPE" speed="1.99" pos="7.09" lane="2.0.00_0" slope="0.00"/>
        <vehicle id="12" x="378.88" y="2.00" angle="270.00" type="DEFAULT_VEHTYPE" speed="0.00" pos="5.10" lane="7.0.00_0" slope="0.00"/>
        <vehicle id="2" x="223.31" y="199.14" angle="270.03" type="DEFAULT_VEHTYPE" speed="13.63" pos="102.39" lane="4.0.00_0" slope="0.00"/>
        <vehicle id="3" x="325.46" y="330.62" angle="270.02" type="DEFAULT_VEHTYPE" speed="6.71" pos="0.23" lane="-1.0.00_0" slope="0.00"/>
        <vehicle id="4" x="250.92" y="330.64" angle="270.00" type="DEFAULT_VEHTYPE" speed="13.56" pos="74.77" lane="-1.0.00_0" slope="0.00"/>
        <vehicle id="5" x="-1.98" y="280.49" angle="180.02" type="DEFAULT_VEHTYPE" speed="10.94" pos="38.16" lane="-15.0.00_0" slope="0.00"/>
        <vehicle id="6" x="359.29" y="330.60" angle="270.03" type="DEFAULT_VEHTYPE" speed="7.66" pos="25.36" lane="-0.0.00_0" slope="0.00"/>
        <vehicle id="7" x="392.41" y="293.09" angle="180.06" type="DEFAULT_VEHTYPE" speed="10.29" pos="25.67" lane="8.0.00_0" slope="0.00"/>
        <vehicle id="8" x="371.04" y="-2.00" angle="90.00" type="DEFAULT_VEHTYPE" speed="7.51" pos="23.25" lane="-7.0.00_0" slope="0.00"/>
        <vehicle id="9" x="308.42" y="330.63" angle="270.00" type="DEFAULT_VEHTYPE" speed="6.05" pos="17.27" lane="-1.0.00_0" slope="0.00"/>
    </timestep>
    <timestep time="13.00">
        <vehicle id="0" x="88.44" y="267.57" angle="180.00" type="DEFAULT_VEHTYPE" speed="14.18" pos="14.89" lane=":184_0_0" slope="0.00"/>
        <vehicle id="1" x="290.66" y="273.14" angle="269.99" type="DEFAULT_VEHTYPE" speed="12.27" pos="35.03" lane="10.0.00_0" slope="0.00"/>
        <vehicle id="10" x="13.74" y="326.63" angle="89.65" type="DEFAULT_VEHTYPE" speed="5.52" pos="2.65" lane="3.0.00_0" slope="0.00"/>
        <vehicle id="11" x="113.32" y="326.66" angle="90.00" type="DEFAULT_VEHTYPE" speed="3.48" pos="10.57" lane="2.0.00_0" slope="0.00"/>
        <vehicle id="12" x="376.37" y="2.00" angle="270.00" type="DEFAULT_VEHTYPE" speed="2.51" pos="7.61" lane="7.0.00_0" slope="0.00"/>
        <vehicle id="2" x="209.37" y="199.15" angle="270.03" type="DEFAULT_VEHTYPE" speed="13.94" pos="116.33" lane="4.0.00_0" slope="0.00"/>
        <vehicle id="3" x="318.30" y="330.63" angle="270.09" type="DEFAULT_VEHTYPE" speed="7.17" pos="7.39" lane="-1.0.00_0" slope="0.00"/>
        <vehicle id="4" x="237.42" y="330.65" angle="270.00" type="DEFAULT_VEHTYPE" speed="13.49" pos="88.27" lane="-1.0.00_0" slope="0.00"/>
        <vehicle id="5" x="-1.99" y="269.36" angle="180.00" type="DEFAULT_VEHTYPE" speed="11.12" pos="49.29" lane="-15.0.00_0" slope="0.00"/>
        <vehicle id="6" x="350.30" y="330.61" angle="270.03" type="DEFAULT_VEHTYPE" speed="8.99" pos="34.35" lane="-0.0.00_0" slope="0.00"/>
        <vehicle id="7" x="392.40" y="281.26" angle="180.01" type="DEFAULT_VEHTYPE" speed="11.83" pos="37.50" lane="8.0.00_0" slope="0.00"/>
        <vehicle id="8" x="380.62" y="-2.00" angle="90.00" type="DEFAULT_VEHTYPE" speed="9.58" pos="32.83" lane="-7.0.00_0" slope="0.00"/>
        <vehicle id="9" x="300.05" y="330.63" angle="270.02" type="DEFAULT_VEHTYPE" speed="8.37" pos="25.64" lane="-1.0.00_0" slope="0.00"/>
    </timestep>
    <timestep time="14.00">
        <vehicle id="0" x="88.44" y="253.49" angle="179.99" type="DEFAULT_VEHTYPE" speed="14.08" pos="6.97" lane="-22.0.00_0" slope="0.00"/>
        <vehicle id="1" x="277.68" y="273.13" angle="269.99" type="DEFAULT_VEHTYPE" speed="12.98" pos="48.01" lane="10.0.00_0" slope="0.00"/>
        <vehicle id="10" x="20.64" y="326.63" angle="89.98" type="DEFAULT_VEHTYPE" speed="6.90" pos="9.55" lane="3.0.00_0" slope="0.00"/>
        <vehicle id="11" x="118.81" y="326.66" angle="90.00" type="DEFAULT_VEHTYPE" speed="5.49" pos="16.06" lane="2.0.00_0" slope="0.00"/>
        <vehicle id="12" x="371.75" y="2.00" angle="270.00" type="DEFAULT_VEHTYPE" speed="4.62" pos="12.23" lane="7.0.00_0" slope="0.00"/>
        <vehicle id="14" x="3.17" y="323.51" angle="13.52" type="DEFAULT_VEHTYPE" speed="0.00" pos="5.10" lane="-13.0.00_0" slope="0.00"/>
        <vehicle id="2" x="196.14" y="199.15" angle="270.03" type="DEFAULT_VEHTYPE" speed="13.23" pos="129.56" lane="4.0.00_0" slope="0.00"/>
        <vehicle id="3" x="309.71" y="330.63" angle="270.00" type="DEFAULT_VEHTYPE" speed="8.59" pos="15.98" lane="-1.0.00_0" slope="0.00"/>
        <vehicle id="4" x="223.43" y="330.65" angle="270.00" type="DEFAULT_VEHTYPE" speed="14.00" pos="102.26" lane="-1.0.00_0" slope="0.00"/>
        <vehicle id="5" x="-1.99" y="258.02" angle="180.00" type="DEFAULT_VEHTYPE" speed="11.35" pos="60.63" lane="-15.0.00_0" slope="0.00"/>
        <vehicle id="6" x="343.34" y="329.93" angle="262.19" type="DEFAULT_VEHTYPE" speed="7.01" pos="5.00" lane=":43_1_0" slope="0.00"/>
        <vehicle id="7" x="392.38" y="269.76" angle="180.11" type="DEFAULT_VEHTYPE" speed="11.50" pos="49.00" lane="8.0.00_0" slope="0.00"/>
        <vehicle id="8" x="391.33" y="-0.07" angle="69.06" type="DEFAULT_VEHTYPE" speed="11.09" pos="7.40" lane="14.0.00_0" slope="0.00"/>
        <vehicle id="9" x="289.27" y="330.64" angle="270.00" type="DEFAULT_VEHTYPE" speed="10.78" pos="36.42" lane="-1.0.00_0" slope="0.00"/>
    </timestep>
    <timestep time="15.00">
        <vehicle id="0" x="88.44" y="238.81" angle="179.99" type="DEFAULT_VEHTYPE" speed="14.67" pos="21.64" lane="-22.0.00_0" slope="0.00"/>
        <vehicle id="1" x="265.61" y="273.13" angle="269.99" type="DEFAULT_VEHTYPE" speed="12.07" pos="60.07" lane="10.0.00_0" slope="0.00"/>
        <vehicle id="10" x="30.05" y="326.64" angle="89.98" type="DEFAULT_VEHTYPE" speed="9.42" pos="18.96" lane="3.0.00_0" slope="0.00"/>
        <vehicle id="11" x="125.79" y="326.66" angle="90.00" type="DEFAULT_VEHTYPE" speed="6.97" pos="23.03" lane="2.0.00_0" slope="0.00"/>
        <vehicle id="12" x="365.79" y="2.00" angle="270.00" type="DEFAULT_VEHTYPE" speed="5.96" pos="18.19" lane="7.0.00_0" slope="0.00"/>
        <vehicle id="13" x="16.19" y="326.63" angle="89.98" type="DEFAULT_VEHTYPE" speed="0.00" pos="5.10" lane="3.0.00_0" slope="0.00"/>
        <vehicle id="14" x="4.37" y="324.85" angle="27.82" type="DEFAULT_VEHTYPE" speed="1.81" pos="6.91" lane="-13.0.00_0" slope="0.00"/>
        <vehicle id="15" x="334.83" y="114.35" angle="180.03" type="DEFAULT_VEHTYPE" speed="0.00" pos="5.10" lane="-19.0.00_0" slope="0.00"/>
        <vehicle id="2" x="183.13" y="199.16" angle="270.03" type="DEFAULT_VEHTYPE" speed="13.01" pos="142.57" lane="4.0.00_0" slope="0.00"/>
        <vehicle id="3" x="299.21" y="330.64" angle="270.07" type="DEFAULT_VEHTYPE" speed="10.50" pos="26.48" lane="-1.0.00_0" slope="0.00"/>
        <vehicle id="4" x="209.34" y="330.65" angle="270.00" type="DEFAULT_VEHTYPE" speed="14.09" pos="116.35" lane="-1.0.00_0" slope="0.00"/>
        <vehicle id="5" x="-2.00" y="247.07" angle="180.00" type="DEFAULT_VEHTYPE" speed="10.95" pos="71.58" lane="-15.0.00_0" slope="0.00"/>
        <vehicle id="6" x="336.67" y="324.82" angle="222.87" type="DEFAULT_VEHTYPE" speed="8.76" pos="5.46" lane=":43_6_0" slope="0.00"/>
        <vehicle id="7" x="392.37" y="257.50" angle="180.01" type="DEFAULT_VEHTYPE" speed="12.26" pos="61.26" lane="8.0.00_0" slope="0.00"/>
        <vehicle id="8" x="396.41" y="10.50" angle="6.71" type="DEFAULT_VEHTYPE" speed="12.46" pos="0.43" lane="-8.0.00_0" slope="0.00"/>
        <vehicle id="9" x="278.02" y="330.64" angle="270.00" type="DEFAULT_VEHTYPE" speed="11.25" pos="47.67" lane="-1.0.00_0" slope="0.00"/>
    </timestep>
    <timestep time="16.00">
        <vehicle id="0" x="88.45" y="224.48" angle="179.99" type="DEFAULT_VEHTYPE" speed="14.33" pos="35.97" lane="-22.0.00_0" slope="0.00"/>
        <vehicle id="1" x="252.90" y="273.13" angle="269.99" type="DEFAULT_VEHTYPE" speed="12.71" pos="72.78" lane="10.0.00_0" slope="0.00"/>
        <vehicle id="10" x="41.82" y="326.64" angle="89.98" type="DEFAULT_VEHTYPE" speed="11.77" pos="30.73" lane="3.0.00_0" slope="0.00"/>
        <vehicle id="11" x="134.16" y="326.66" angle="90.00" type="DEFAULT_VEHTYPE" speed="8.37" pos="31.41" lane="2.0.00_0" slope="0.00"/>
        <vehicle id="12" x="358.20" y="2.00" angle="270.00" type="DEFAULT_VEHTYPE" speed="7.59" pos="25.78" lane="7.0.00_0" slope="0.00"/>
        <vehicle id="13" x="18.40" y="326.63" angle="89.98" type="DEFAULT_VEHTYPE" speed="2.21" pos="7.31" lane="3.0.00_0" slope="0.00"/>
        <vehicle id="14" x="7.24" y="326.32" angle="55.63" type="DEFAULT_VEHTYPE" speed="3.25" pos="10.16" lane="-13.0.00_0" slope="0.00"/>
        <vehicle id="15" x="334.83" y="112.97" angle="180.03" type="DEFAULT_VEHTYPE" speed="1.38" pos="6.48" lane="-19.0.00_0" slope="0.00"/>
        <vehicle id="16" x="320.60" y="199.09" angle="270.03" type="DEFAULT_VEHTYPE" speed="0.00" pos="5.10" lane="4.0.00_0" slope="0.00"/>
        <vehicle id="2" x="170.24" y="199.17" angle="270.03" type="DEFAULT_VEHTYPE" speed="12.89" pos="155.46" lane="4.0.00_0" slope="0.00"/>
        <vehicle id="3" x="288.39" y="330.64" angle="270.00" type="DEFAULT_VEHTYPE" speed="10.82" pos="37.30" lane="-1.0.00_0" slope="0.00"/>
        <vehicle id="4" x="195.78" y="330.65" angle="270.00" type="DEFAULT_VEHTYPE" speed="13.56" pos="129.91" lane="-1.0.00_0" slope="0.00"/>
        <vehicle id="5" x="-2.00" y="235.77" angle="180.00" type="DEFAULT_VEHTYPE" speed="11.30" pos="82.88" lane="-15.0.00_0" slope="0.00"/>
        <vehicle id="6" x="334.95" y="315.84" angle="185.17" type="DEFAULT_VEHTYPE" speed="9.30" pos="1.98" lane="-16.0.00_0" slope="0.00"/>
        <vehicle id="7" x="392.35" y="245.88" angle="180.11" type="DEFAULT_VEHTYPE" speed="11.62" pos="72.88" lane="8.0.00_0" slope="0.00"/>
        <vehicle id="8" x="396.41" y="22.24" angle="359.98" type="DEFAULT_VEHTYPE" speed="11.75" pos="12.17" lane="-8.0.00_0" slope="0.00"/>
        <vehicle id="9" x="266.58" y="330.64" angle="270.00" type="DEFAULT_VEHTYPE" speed="11.44" pos="59.11" lane="-1.0.00_0" slope="0.00"/>
    </timestep>
    <timestep time="17.00">
        <vehicle id="0" x="88.45" y="209.94" angle="179.99" type="DEFAULT_VEHTYPE" speed="14.54" pos="50.51" lane="-22.0.00_0" slope="0.00"/>
        <vehicle id="1" x="240.58" y="273.13" angle="269.99" type="DEFAULT_VEHTYPE" speed="12.32" pos="85.11" lane="10.0.00_0" slope="0.00"/>
        <vehicle id="10" x="54.95" y="326.64" angle="89.98" type="DEFAULT_VEHTYPE" speed="13.13" pos="43.86" lane="3.0.00_0" slope="0.00"/>
        <vehicle id="11" x="144.39" y="326.66" angle="90.00" type="DEFAULT_VEHTYPE" speed="10.23" pos="41.64" lane="2.0.00_0" slope="0.00"/>
        <vehicle id="12" x="349.24" y="2.00" angle="270.00" type="DEFAULT_VEHTYPE" speed="8.96" pos="34.74" lane="7.0.00_0" slope="0.00"/>
        <vehicle id="13" x="22.95" y="326.63" angle="89.98" type="DEFAULT_VEHTYPE" speed="4.55" pos="11.86" lane="3.0.00_0" slope="0.00"/>
        <vehicle id="14" x="10.56" y="326.63" angle="79.43" type="DEFAULT_VEHTYPE" speed="3.35" pos="13.52" lane="-13.0.00_0" slope="0.00"/>
        <vehicle id="15" x="334.82" y="109.90" angle="180.03" type="DEFAULT_VEHTYPE" speed="3.07" pos="9.55" lane="-19.0.00_0" slope="0.00"/>
        <vehicle id="16" x="318.86" y="199.09" angle="270.03" type="DEFAULT_VEHTYPE" speed="1.74" pos="6.84" lane="4.0.00_0" slope="0.00"/>
        <vehicle id="2" x="156.29" y="199.17" angle="270.03" type="DEFAULT_VEHTYPE" speed="13.95" pos="169.41" lane="4.0.00_0" slope="0.00"/>
        <vehicle id="3" x="276.84" y="330.64" angle="270.00" type="DEFAULT_VEHTYPE" speed="11.55" pos="48.85" lane="-1.0.00_0" slope="0.00"/>
        <vehicle id="4" x="182.21" y="330.65" angle="270.00" type="DEFAULT_VEHTYPE" speed="13.57" pos="143.48" lane="-1.0.00_0" slope="0.00"/>
        <vehicle id="5" x="-1.99" y="224.46" angle="180.00" type="DEFAULT_VEHTYPE" speed="11.31" pos="94.19" lane="-15.0.00_0" slope="0.00"/>
        <vehicle id="6" x="334.94" y="304.76" angle="180.03" type="DEFAULT_VEHTYPE" speed="11.08" pos="13.06" lane="-16.0.00_0" slope="0.00"/>
        <vehicle id="7" x="392.35" y="234.59" angle="180.00" type="DEFAULT_VEHTYPE" speed="11.30" pos="84.17" lane="8.0.00_0" slope="0.00"/>
        <vehicle id="8" x="396.40" y="35.17" angle="0.00" type="DEFAULT_VEHTYPE" speed="12.93" pos="25.10" lane="-8.0.00_0" slope="0.00"/>
        <vehicle id="9" x="254.87" y="330.64" angle="270.00" type="DEFAULT_VEHTYPE" speed="11.71" pos="70.82" lane="-1.0.00_0" slope="0.00"/>
    </timestep>
    <timestep time="18.00">
        <vehicle id="0" x="88.45" y="195.66" angle="180.00" type="DEFAULT_VEHTYPE" speed="14.28" pos="13.11" lane=":156_0_0" slope="0.00"/>
        <vehicle id="1" x="228.51" y="273.13" angle="269.99" type="DEFAULT_VEHTYPE" speed="12.06" pos="97.17" lane="10.0.00_0" slope="0.00"/>
        <vehicle id="10" x="69.20" y="326.65" angle="89.98" type="DEFAULT_VEHTYPE" speed="14.25" pos="58.11" lane="3.0.00_0" slope="0.00"/>
        <vehicle id="11" x="156.88" y="326.65" angle="90.02" type="DEFAULT_VEHTYPE" speed="12.49" pos="11.86" lane=":26_5_0" slope="0.00"/>
        <vehicle id="12" x="341.58" y="3.95" angle="290.47" type="DEFAULT_VEHTYPE" speed="8.08" pos="6.63" lane=":60_2_0" slope="0.00"/>
        <vehicle id="13" x="29.49" y="326.64" angle="89.98" type="DEFAULT_VEHTYPE" speed="6.55" pos="18.40" lane="3.0.00_0" slope="0.00"/>
        <vehicle id="14" x="15.09" y="326.63" angle="89.99" type="DEFAULT_VEHTYPE" speed="4.63" pos="4.00" lane="3.0.00_0" slope="0.00"/>
        <vehicle id="15" x="334.82" y="105.11" angle="180.03" type="DEFAULT_VEHTYPE" speed="4.79" pos="14.34" lane="-19.0.00_0" slope="0.00"/>
        <vehicle id="16" x="315.35" y="199.10" angle="270.03" type="DEFAULT_VEHTYPE" speed="3.51" pos="10.35" lane="4.0.00_0" slope="0.00"/>
        <vehicle id="18" x="334.87" y="179.84" angle="180.03" type="DEFAULT_VEHTYPE" speed="0.00" pos="5.10" lane="-18.0.00_0" slope="0.00"/>
        <vehicle id="2" x="142.29" y="199.18" angle="270.03" type="DEFAULT_VEHTYPE" speed="13.99" pos="183.41" lane="4.0.00_0" slope="0.00"/>
        <vehicle id="3" x="264.55" y="330.64" angle="270.00" type="DEFAULT_VEHTYPE" speed="12.29" pos="61.14" lane="-1.0.00_0" slope="0.00"/>
        <vehicle id="4" x="169.10" y="330.65" angle="270.00" type="DEFAULT_VEHTYPE" speed="13.11" pos="156.59" lane="-1.0.00_0" slope="0.00"/>
        <vehicle id="5" x="-1.99" y="213.30" angle="180.00" type="DEFAULT_VEHTYPE" speed="11.16" pos="105.35" lane="-15.0.00_0" slope="0.00"/>
        <vehicle id="6" x="334.94" y="291.57" angle="180.03" type="DEFAULT_VEHTYPE" speed="13.19" pos="26.25" lane="-16.0.00_0" slope="0.00"/>
        <vehicle id="7" x="392.35" y="222.44" angle="180.00" type="DEFAULT_VEHTYPE" speed="12.15" pos="96.32" lane="8.0.00_0" slope="0.00"/>
        <vehicle id="8" x="396.40" y="47.86" angle="359.99" type="DEFAULT_VEHTYPE" speed="12.69" pos="37.79" lane="-8.0.00_0" slope="0.00"/>
        <vehicle id="9" x="243.28" y="330.65" angle="270.08" type="DEFAULT_VEHTYPE" speed="11.59" pos="82.41" lane="-1.0.00_0" slope="0.00"/>
    </timestep>
    <timestep time="19.00">
        <vehicle id="0" x="88.45" y="181.75" angle="179.99" type="DEFAULT_VEHTYPE" speed="13.91" pos="5.02" lane="-23.0.00_0" slope="0.00"/>
        <vehicle id="1" x="215.48" y="273.13" angle="269.99" type="DEFAULT_VEHTYPE" speed="13.03" pos="110.20" lane="10.0.00_0" slope="0.00"/>
        <vehicle id="10" x="83.50" y="326.65" angle="89.98" type="DEFAULT_VEHTYPE" speed="14.30" pos="4.06" lane=":77_5_0" slope="0.00"/>
        <vehicle id="11" x="170.08" y="326.65" angle="90.02" type="DEFAULT_VEHTYPE" speed="13.20" pos="1.94" lane="1.0.00_0" slope="0.00"/>
        <vehicle id="12" x="338.86" y="10.51" angle="344.84" type="DEFAULT_VEHTYPE" speed="7.38" pos="14.01" lane=":60_2_0" slope="0.00"/>
        <vehicle id="13" x="38.59" y="326.64" angle="89.98" type="DEFAULT_VEHTYPE" speed="9.09" pos="27.50" lane="3.0.00_0" slope="0.00"/>
        <vehicle id="14" x="21.42" y="326.63" angle="89.98" type="DEFAULT_VEHTYPE" speed="6.33" pos="10.33" lane="3.0.00_0" slope="0.00"/>
        <vehicle id="15" x="334.82" y="98.44" angle="180.03" type="DEFAULT_VEHTYPE" speed="6.67" pos="21.01" lane="-19.0.00_0" slope="0.00"/>
        <vehicle id="16" x="309.89" y="199.10" angle="270.03" type="DEFAULT_VEHTYPE" speed="5.47" pos="15.81" lane="4.0.00_0" slope="0.00"/>
        <vehicle id="17" x="320.60" y="199.09" angle="270.03" type="DEFAULT_VEHTYPE" speed="0.00" pos="5.10" lane="4.0.00_0" slope="0.00"/>
        <vehicle id="18" x="334.87" y="178.13" angle="180.03" type="DEFAULT_VEHTYPE" speed="1.71" pos="6.81" lane="-18.0.00_0" slope="0.00"/>
        <vehicle id="2" x="129.32" y="199.19" angle="270.03" type="DEFAULT_VEHTYPE" speed="12.97" pos="196.38" lane="4.0.00_0" slope="0.00"/>
        <vehicle id="3" x="252.96" y="330.64" angle="270.00" type="DEFAULT_VEHTYPE" speed="11.59" pos="72.73" lane="-1.0.00_0" slope="0.00"/>
        <vehicle id="4" x="155.85" y="330.66" angle="270.02" type="DEFAULT_VEHTYPE" speed="13.25" pos="12.29" lane=":26_0_0" slope="0.00"/>
        <vehicle id="5" x="-1.98" y="202.12" angle="180.00" type="DEFAULT_VEHTYPE" speed="11.18" pos="116.53" lane="-15.0.00_0" slope="0.00"/>
        <vehicle id="6" x="334.93" y="278.22" angle="180.03" type="DEFAULT_VEHTYPE" speed="13.35" pos="3.98" lane=":111_1_0" slope="0.00"/>
        <vehicle id="7" x="392.35" y="210.46" angle="180.00" type="DEFAULT_VEHTYPE" speed="11.98" pos="108.30" lane="8.0.00_0" slope="0.00"/>
        <vehicle id="8" x="396.39" y="60.08" angle="0.00" type="DEFAULT_VEHTYPE" speed="12.22" pos="50.01" lane="-8.0.00_0" slope="0.00"/>