<?xml version="1.0" encoding="UTF-8"?>

<!-- generated on Wed Aug 14 12:04:26 2019 by Eclipse SUMO Version 1.2.0
<configuration xmlns:xsi="http://www.w3.org/2001/XMLSchema-instance" xsi:noNamespaceSchemaLocation="http://sumo.dlr.de/xsd/sumoConfiguration.xsd">

    <input>
        <net-file value="Town01.net.xml"/>
        <route-files value="trips.trips.xml"/>
    </input>

    <output>
        <netstate-dump value="test.log"/>
        <fcd-output value="Town02_Car200_1.log"/>
    </output>

    <time>
        <begin value="0"/>
        <end value="10000"/>
    </time>

</configuration>
-->

<fcd-export xmlns:xsi="http://www.w3.org/2001/XMLSchema-instance" xsi:noNamespaceSchemaLocation="http://sumo.dlr.de/xsd/fcd_file.xsd">
    <timestep time="0.00">
        <vehicle id="0" x="16.19" y="326.63" angle="89.98" type="DEFAULT_VEHTYPE" speed="0.00" pos="5.10" lane="3.0.00_0" slope="0.00"/>
    </timestep>
    <timestep time="1.00">
        <vehicle id="0" x="17.57" y="326.63" angle="89.98" type="DEFAULT_VEHTYPE" speed="1.38" pos="6.48" lane="3.0.00_0" slope="0.00"/>
        <vehicle id="1" x="391.10" y="323.72" angle="123.67" type="DEFAULT_VEHTYPE" speed="0.00" pos="5.10" lane="-11.0.00_0" slope="0.00"/>
    </timestep>
    <timestep time="2.00">
        <vehicle id="0" x="21.46" y="326.63" angle="89.98" type="DEFAULT_VEHTYPE" speed="3.90" pos="10.37" lane="3.0.00_0" slope="0.00"/>
        <vehicle id="1" x="392.15" y="321.51" angle="144.07" type="DEFAULT_VEHTYPE" speed="2.47" pos="7.57" lane="-11.0.00_0" slope="0.00"/>
        <vehicle id="2" x="3.17" y="323.51" angle="13.52" type="DEFAULT_VEHTYPE" speed="0.00" pos="5.10" lane="-13.0.00_0" slope="0.00"/>
    </timestep>
    <timestep time="3.00">
        <vehicle id="0" x="27.71" y="326.63" angle="89.98" type="DEFAULT_VEHTYPE" speed="6.25" pos="16.62" lane="3.0.00_0" slope="0.00"/>
        <vehicle id="1" x="392.44" y="317.65" angle="172.51" type="DEFAULT_VEHTYPE" speed="3.99" pos="1.11" lane="8.0.00_0" slope="0.00"/>
        <vehicle id="2" x="4.51" y="324.95" angle="29.45" type="DEFAULT_VEHTYPE" speed="1.98" pos="7.08" lane="-13.0.00_0" slope="0.00"/>
        <vehicle id="3" x="106.78" y="-1.98" angle="90.00" type="DEFAULT_VEHTYPE" speed="0.00" pos="5.10" lane="-6.0.00_0" slope="0.00"/>
    </timestep>
    <timestep time="4.00">
        <vehicle id="0" x="36.17" y="326.64" angle="89.98" type="DEFAULT_VEHTYPE" speed="8.46" pos="25.08" lane="3.0.00_0" slope="0.00"/>
        <vehicle id="1" x="392.43" y="311.24" angle="180.11" type="DEFAULT_VEHTYPE" speed="6.40" pos="7.52" lane="8.0.00_0" slope="0.00"/>
        <vehicle id="2" x="8.32" y="326.55" angle="64.56" type="DEFAULT_VEHTYPE" speed="4.19" pos="11.27" lane="-13.0.00_0" slope="0.00"/>
        <vehicle id="3" x="109.16" y="-1.98" angle="90.00" type="DEFAULT_VEHTYPE" speed="2.38" pos="7.48" lane="-6.0.00_0" slope="0.00"/>
    </timestep>
    <timestep time="5.00">
        <vehicle id="0" x="45.99" y="326.64" angle="89.98" type="DEFAULT_VEHTYPE" speed="9.82" pos="34.90" lane="3.0.00_0" slope="0.00"/>
        <vehicle id="1" x="392.42" y="303.38" angle="180.11" type="DEFAULT_VEHTYPE" speed="7.86" pos="15.38" lane="8.0.00_0" slope="0.00"/>
        <vehicle id="2" x="13.74" y="326.63" angle="89.65" type="DEFAULT_VEHTYPE" speed="5.52" pos="2.65" lane="3.0.00_0" slope="0.00"/>
        <vehicle id="3" x="113.42" y="-1.98" angle="90.00" type="DEFAULT_VEHTYPE" speed="4.27" pos="11.74" lane="-6.0.00_0" slope="0.00"/>
        <vehicle id="5" x="338.93" y="287.29" angle="0.03" type="DEFAULT_VEHTYPE" speed="0.00" pos="5.10" lane="16.0.00_0" slope="0.00"/>
    </timestep>
    <timestep time="6.00">
        <vehicle id="0" x="58.15" y="326.64" angle="89.98" type="DEFAULT_VEHTYPE" speed="12.16" pos="47.06" lane="3.0.00_0" slope="0.00"/>
        <vehicle id="1" x="392.41" y="293.09" angle="180.06" type="DEFAULT_VEHTYPE" speed="10.29" pos="25.67" lane="8.0.00_0" slope="0.00"/>
        <vehicle id="2" x="20.96" y="326.63" angle="89.98" type="DEFAULT_VEHTYPE" speed="7.22" pos="9.87" lane="3.0.00_0" slope="0.00"/>
        <vehicle id="3" x="119.76" y="-1.98" angle="90.00" type="DEFAULT_VEHTYPE" speed="6.34" pos="18.08" lane="-6.0.00_0" slope="0.00"/>
        <vehicle id="4" x="106.78" y="-1.98" angle="90.00" type="DEFAULT_VEHTYPE" speed="0.00" pos="5.10" lane="-6.0.00_0" slope="0.00"/>
        <vehicle id="5" x="338.93" y="289.31" angle="0.03" type="DEFAULT_VEHTYPE" speed="2.02" pos="7.12" lane="16.0.00_0" slope="0.00"/>
        <vehicle id="6" x="6.04" y="330.15" angle="264.42" type="DEFAULT_VEHTYPE" speed="0.00" pos="5.10" lane="13.0.00_0" slope="0.00"/>
    </timestep>
    <timestep time="7.00">
        <vehicle id="0" x="72.27" y="326.65" angle="89.98" type="DEFAULT_VEHTYPE" speed="14.12" pos="61.18" lane="3.0.00_0" slope="0.00"/>
        <vehicle id="1" x="392.40" y="280.68" angle="180.04" type="DEFAULT_VEHTYPE" speed="12.41" pos="38.08" lane="8.0.00_0" slope="0.00"/>
        <vehicle id="2" x="29.93" y="326.64" angle="89.98" type="DEFAULT_VEHTYPE" speed="8.97" pos="18.84" lane="3.0.00_0" slope="0.00"/>
        <vehicle id="3" x="127.60" y="-1.98" angle="90.00" type="DEFAULT_VEHTYPE" speed="7.84" pos="25.92" lane="-6.0.00_0" slope="0.00"/>
        <vehicle id="4" x="108.37" y="-1.98" angle="90.00" type="DEFAULT_VEHTYPE" speed="1.59" pos="6.69" lane="-6.0.00_0" slope="0.00"/>
        <vehicle id="5" x="338.94" y="293.16" angle="0.03" type="DEFAULT_VEHTYPE" speed="3.85" pos="10.97" lane="16.0.00_0" slope="0.00"/>
        <vehicle id="6" x="3.87" y="329.28" angle="254.58" type="DEFAULT_VEHTYPE" speed="2.34" pos="7.44" lane="13.0.00_0" slope="0.00"/>
        <vehicle id="7" x="391.10" y="323.72" angle="123.67" type="DEFAULT_VEHTYPE" speed="0.00" pos="5.10" lane="-11.0.00_0" slope="0.00"/>
    </timestep>
    <timestep time="8.00">
        <vehicle id="0" x="86.94" y="326.65" angle="89.98" type="DEFAULT_VEHTYPE" speed="14.67" pos="7.50" lane=":77_5_0" slope="0.00"/>
        <vehicle id="1" x="392.38" y="268.45" angle="180.11" type="DEFAULT_VEHTYPE" speed="12.22" pos="50.31" lane="8.0.00_0" slope="0.00"/>
        <vehicle id="2" x="41.10" y="326.64" angle="89.98" type="DEFAULT_VEHTYPE" speed="11.18" pos="30.01" lane="3.0.00_0" slope="0.00"/>
        <vehicle id="3" x="137.21" y="-1.98" angle="90.00" type="DEFAULT_VEHTYPE" speed="9.61" pos="35.53" lane="-6.0.00_0" slope="0.00"/>
        <vehicle id="4" x="111.38" y="-1.98" angle="90.00" type="DEFAULT_VEHTYPE" speed="3.01" pos="9.70" lane="-6.0.00_0" slope="0.00"/>
        <vehicle id="5" x="338.94" y="299.36" angle="0.03" type="DEFAULT_VEHTYPE" speed="6.19" pos="17.17" lane="16.0.00_0" slope="0.00"/>
        <vehicle id="6" x="0.85" y="327.05" angle="236.64" type="DEFAULT_VEHTYPE" speed="3.78" pos="11.22" lane="13.0.00_0" slope="0.00"/>
        <vehicle id="7" x="392.06" y="321.91" angle="140.40" type="DEFAULT_VEHTYPE" speed="2.05" pos="7.15" lane="-11.0.00_0" slope="0.00"/>
        <vehicle id="8" x="16.19" y="326.63" angle="89.98" type="DEFAULT_VEHTYPE" speed="0.00" pos="5.10" lane="3.0.00_0" slope="0.00"/>
    </timestep>
    <timestep time="9.00">
        <vehicle id="0" x="101.27" y="326.66" angle="89.98" type="DEFAULT_VEHTYPE" speed="14.34" pos="21.84" lane=":77_5_0" slope="0.00"/>
        <vehicle id="1" x="392.36" y="255.46" angle="180.11" type="DEFAULT_VEHTYPE" speed="12.99" pos="63.30" lane="8.0.00_0" slope="0.00"/>
        <vehicle id="2" x="54.18" y="326.64" angle="89.98" type="DEFAULT_VEHTYPE" speed="13.08" pos="43.09" lane="3.0.00_0" slope="0.00"/>
        <vehicle id="3" x="148.53" y="-1.98" angle="90.00" type="DEFAULT_VEHTYPE" speed="11.32" pos="46.85" lane="-6.0.00_0" slope="0.00"/>
        <vehicle id="4" x="115.83" y="-1.98" angle="90.00" type="DEFAULT_VEHTYPE" speed="4.45" pos="14.15" lane="-6.0.00_0" slope="0.00"/>
        <vehicle id="5" x="338.94" y="308.07" angle="0.03" type="DEFAULT_VEHTYPE" speed="8.71" pos="25.88" lane="16.0.00_0" slope="0.00"/>
        <vehicle id="6" x="-1.80" y="321.53" angle="202.58" type="DEFAULT_VEHTYPE" speed="6.23" pos="17.45" lane="13.0.00_0" slope="0.00"/>
        <vehicle id="7" x="392.44" y="318.04" angle="170.50" type="DEFAULT_VEHTYPE" speed="4.01" pos="0.72" lane="8.0.00_0" slope="0.00"/>
        <vehicle id="8" x="17.91" y="326.63" angle="89.98" type="DEFAULT_VEHTYPE" speed="1.72" pos="6.82" lane="3.0.00_0" slope="0.00"/>
        <vehicle id="9" x="320.59" y="273.14" angle="269.99" type="DEFAULT_VEHTYPE" speed="0.00" pos="5.10" lane="10.0.00_0" slope="0.00"/>
    </timestep>
    <timestep time="10.00">
        <vehicle id="0" x="115.91" y="326.66" angle="90.00" type="DEFAULT_VEHTYPE" speed="14.64" pos="13.16" lane="2.0.00_0" slope="0.00"/>
        <vehicle id="1" x="392.35" y="243.12" angle="180.01" type="DEFAULT_VEHTYPE" speed="12.34" pos="75.64" lane="8.0.00_0" slope="0.00"/>
        <vehicle id="10" x="320.59" y="330.62" angle="270.00" type="DEFAULT_VEHTYPE" speed="0.00" pos="5.10" lane="-1.0.00_0" slope="0.00"/>
        <vehicle id="2" x="67.96" y="326.65" angle="89.98" type="DEFAULT_VEHTYPE" speed="13.78" pos="56.87" lane="3.0.00_0" slope="0.00"/>
        <vehicle id="3" x="161.80" y="-1.99" angle="90.00" type="DEFAULT_VEHTYPE" speed="13.27" pos="60.13" lane="-6.0.00_0" slope="0.00"/>
        <vehicle id="4" x="122.54" y="-1.98" angle="90.00" type="DEFAULT_VEHTYPE" speed="6.71" pos="20.86" lane="-6.0.00_0" slope="0.00"/>
        <vehicle id="5" x="338.95" y="314.22" angle="0.03" type="DEFAULT_VEHTYPE" speed="6.16" pos="32.03" lane="16.0.00_0" slope="0.00"/>
        <vehicle id="6" x="-1.97" y="313.54" angle="180.00" type="DEFAULT_VEHTYPE" speed="8.09" pos="5.11" lane="-15.0.00_0" slope="0.00"/>
        <vehicle id="7" x="392.43" y="312.44" angle="180.11" type="DEFAULT_VEHTYPE" speed="5.60" pos="6.32" lane="8.0.00_0" slope="0.00"/>
        <vehicle id="8" x="21.81" y="326.63" angle="89.98" type="DEFAULT_VEHTYPE" speed="3.91" pos="10.72" lane="3.0.00_0" slope="0.00"/>
        <vehicle id="9" x="319.15" y="273.14" angle="269.99" type="DEFAULT_VEHTYPE" speed="1.44" pos="6.54" lane="10.0.00_0" slope="0.00"/>
    </timestep>
    <timestep time="11.00">
        <vehicle id="0" x="130.02" y="326.66" angle="90.00" type="DEFAULT_VEHTYPE" speed="14.11" pos="27.27" lane="2.0.00_0" slope="0.00"/>
        <vehicle id="1" x="392.35" y="230.24" angle="180.00" type="DEFAULT_VEHTYPE" speed="12.88" pos="88.52" lane="8.0.00_0" slope="0.00"/>
        <vehicle id="10" x="318.86" y="330.63" angle="270.06" type="DEFAULT_VEHTYPE" speed="1.73" pos="6.83" lane="-1.0.00_0" slope="0.00"/>
        <vehicle id="11" x="320.63" y="133.45" angle="270.01" type="DEFAULT_VEHTYPE" speed="0.00" pos="5.10" lane="12.0.00_0" slope="0.00"/>
        <vehicle id="2" x="79.05" y="326.65" angle="89.98" type="DEFAULT_VEHTYPE" speed="11.09" pos="67.96" lane="3.0.00_0" slope="0.00"/>
        <vehicle id="3" x="176.11" y="-1.99" angle="90.00" type="DEFAULT_VEHTYPE" speed="14.31" pos="74.43" lane="-6.0.00_0" slope="0.00"/>
        <vehicle id="4" x="131.70" y="-1.98" angle="90.00" type="DEFAULT_VEHTYPE" speed="9.16" pos="30.02" lane="-6.0.00_0" slope="0.00"/>
        <vehicle id="5" x="338.95" y="317.46" angle="0.03" type="DEFAULT_VEHTYPE" speed="3.23" pos="35.27" lane="16.0.00_0" slope="0.00"/>
        <vehicle id="6" x="-1.98" y="302.89" angle="180.11" type="DEFAULT_VEHTYPE" speed="10.65" pos="15.76" lane="-15.0.00_0" slope="0.00"/>
        <vehicle id="7" x="392.42" y="304.56" angle="180.11" type="DEFAULT_VEHTYPE" speed="7.87" pos="14.20" lane="8.0.00_0" slope="0.00"/>
        <vehicle id="8" x="28.22" y="326.64" angle="89.98" type="DEFAULT_VEHTYPE" speed="6.41" pos="17.13" lane="3.0.00_0" slope="0.00"/>
        <vehicle id="9" x="316.03" y="273.14" angle="269.99" type="DEFAULT_VEHTYPE" speed="3.12" pos="9.66" lane="10.0.00_0" slope="0.00"/>
    </timestep>
    <timestep time="12.00">
        <vehicle id="0" x="142.03" y="326.66" angle="90.00" type="DEFAULT_VEHTYPE" speed="12.00" pos="39.27" lane="2.0.00_0" slope="0.00"/>
        <vehicle id="1" x="392.35" y="217.45" angle="180.00" type="DEFAULT_VEHTYPE" speed="12.79" pos="101.31" lane="8.0.00_0" slope="0.00"/>
        <vehicle id="10" x="315.63" y="330.63" angle="270.11" type="DEFAULT_VEHTYPE" speed="3.23" pos="10.06" lane="-1.0.00_0" slope="0.00"/>
        <vehicle id="11" x="318.88" y="133.45" angle="270.01" type="DEFAULT_VEHTYPE" speed="1.75" pos="6.85" lane="12.0.00_0" slope="0.00"/>
        <vehicle id="12" x="320.68" y="2.00" angle="270.00" type="DEFAULT_VEHTYPE" speed="0.00" pos="5.10" lane="6.0.00_0" slope="0.00"/>
        <vehicle id="2" x="85.57" y="324.84" angle="109.15" type="DEFAULT_VEHTYPE" speed="6.90" pos="6.51" lane=":77_4_0" slope="0.00"/>
        <vehicle id="3" x="190.71" y="-1.99" angle="90.00" type="DEFAULT_VEHTYPE" speed="14.60" pos="89.03" lane="-6.0.00_0" slope="0.00"/>
        <vehicle id="4" x="142.25" y="-1.98" angle="90.00" type="DEFAULT_VEHTYPE" speed="10.55" pos="40.57" lane="-6.0.00_0" slope="0.00"/>
        <vehicle id="5" x="338.28" y="322.36" angle="352.35" type="DEFAULT_VEHTYPE" speed="4.95" pos="4.60" lane=":43_3_0" slope="0.00"/>
        <vehicle id="6" x="-1.98" y="289.72" angle="180.00" type="DEFAULT_VEHTYPE" speed="13.17" pos="28.93" lane="-15.0.00_0" slope="0.00"/>
        <vehicle id="7" x="392.41" y="294.70" angle="180.11" type="DEFAULT_VEHTYPE" speed="9.86" pos="24.06" lane="8.0.00_0" slope="0.00"/>
        <vehicle id="8" x="37.23" y="326.64" angle="89.98" type="DEFAULT_VEHTYPE" speed="9.01" pos="26.14" lane="3.0.00_0" slope="0.00"/>
        <vehicle id="9" x="310.38" y="273.14" angle="269.99" type="DEFAULT_VEHTYPE" speed="5.66" pos="15.31" lane="10.0.00_0" slope="0.00"/>
    </timestep>
    <timestep time="13.00">
        <vehicle id="0" x="149.87" y="325.61" angle="102.21" type="DEFAULT_VEHTYPE" speed="8.02" pos="5.02" lane=":26_4_0" slope="0.00"/>
        <vehicle id="1" x="392.35" y="205.57" angle="179.99" type="DEFAULT_VEHTYPE" speed="11.89" pos="113.19" lane="8.0.00_0" slope="0.00"/>
        <vehicle id="10" x="309.81" y="330.63" angle="270.00" type="DEFAULT_VEHTYPE" speed="5.82" pos="15.88" lane="-1.0.00_0" slope="0.00"/>
        <vehicle id="11" x="315.22" y="133.45" angle="270.01" type="DEFAULT_VEHTYPE" speed="3.66" pos="10.51" lane="12.0.00_0" slope="0.00"/>
        <vehicle id="12" x="319.01" y="2.00" angle="270.00" type="DEFAULT_VEHTYPE" speed="1.67" pos="6.77" lane="6.0.00_0" slope="0.00"/>
        <vehicle id="13" x="-1.97" y="313.55" angle="180.00" type="DEFAULT_VEHTYPE" speed="0.00" pos="5.10" lane="-15.0.00_0" slope="0.00"/>
        <vehicle id="2" x="88.43" y="317.62" angle="168.39" type="DEFAULT_VEHTYPE" speed="8.10" pos="0.32" lane="-21.0.00_0" slope="0.00"/>
        <vehicle id="3" x="204.49" y="-1.99" angle="90.00" type="DEFAULT_VEHTYPE" speed="13.78" pos="102.81" lane="-6.0.00_0" slope="0.00"/>
        <vehicle id="4" x="155.13" y="-1.99" angle="90.07" type="DEFAULT_VEHTYPE" speed="12.88" pos="53.45" lane="-6.0.00_0" slope="0.00"/>
        <vehicle id="5" x="334.60" y="328.02" angle="321.45" type="DEFAULT_VEHTYPE" speed="6.98" pos="11.58" lane=":43_3_0" slope="0.00"/>
        <vehicle id="6" x="-1.99" y="275.80" angle="180.11" type="DEFAULT_VEHTYPE" speed="13.92" pos="42.85" lane="-15.0.00_0" slope="0.00"/>
        <vehicle id="7" x="392.40" y="282.53" angle="180.00" type="DEFAULT_VEHTYPE" speed="12.18" pos="36.23" lane="8.0.00_0" slope="0.00"/>
        <vehicle id="8" x="47.60" y="326.64" angle="89.98" type="DEFAULT_VEHTYPE" speed="10.37" pos="36.51" lane="3.0.00_0" slope="0.00"/>
        <vehicle id="9" x="302.76" y="273.14" angle="269.99" type="DEFAULT_VEHTYPE" speed="7.62" pos="22.93" lane="10.0.00_0" slope="0.00"/>
    </timestep>
    <timestep time="14.00">
        <vehicle id="0" x="153.83" y="319.94" angle="156.51" type="DEFAULT_VEHTYPE" speed="7.33" pos="12.35" lane=":26_4_0" slope="0.00"/>
        <vehicle id="1" x="392.36" y="192.58" angle="180.00" type="DEFAULT_VEHTYPE" speed="12.98" pos="126.18" lane="8.0.00_0" slope="0.00"/>
        <vehicle id="10" x="301.59" y="330.63" angle="270.00" type="DEFAULT_VEHTYPE" speed="8.22" pos="24.10" lane="-1.0.00_0" slope="0.00"/>
        <vehicle id="11" x="309.48" y="133.45" angle="270.01" type="DEFAULT_VEHTYPE" speed="5.75" pos="16.25" lane="12.0.00_0" slope="0.00"/>
        <vehicle id="12" x="314.98" y="2.00" angle="270.00" type="DEFAULT_VEHTYPE" speed="4.03" pos="10.80" lane="6.0.00_0" slope="0.00"/>
        <vehicle id="13" x="-1.97" y="311.15" angle="180.00" type="DEFAULT_VEHTYPE" speed="2.40" pos="7.50" lane="-15.0.00_0" slope="0.00"/>
        <vehicle id="14" x="320.60" y="199.09" angle="270.03" type="DEFAULT_VEHTYPE" speed="0.00" pos="5.10" lane="4.0.00_0" slope="0.00"/>
        <vehicle id="2" x="88.43" y="307.16" angle="179.98" type="DEFAULT_VEHTYPE" speed="10.46" pos="10.78" lane="-21.0.00_0" slope="0.00"/>
        <vehicle id="3" x="218.47" y="-1.99" angle="90.00" type="DEFAULT_VEHTYPE" speed="13.98" pos="116.79" lane="-6.0.00_0" slope="0.00"/>
        <vehicle id="4" x="168.23" y="-1.99" angle="90.00" type="DEFAULT_VEHTYPE" speed="13.10" pos="66.56" lane="-6.0.00_0" slope="0.00"/>
        <vehicle id="5" x="327.70" y="330.34" angle="283.04" type="DEFAULT_VEHTYPE" speed="7.41" pos="18.99" lane=":43_3_0" slope="0.00"/>
        <vehicle id="6" x="-1.99" y="261.69" angle="180.00" type="DEFAULT_VEHTYPE" speed="14.11" pos="56.96" lane="-15.0.00_0" slope="0.00"/>
        <vehicle id="7" x="392.38" y="271.21" angle="180.11" type="DEFAULT_VEHTYPE" speed="11.32" pos="47.55" lane="8.0.00_0" slope="0.00"/>
        <vehicle id="8" x="59.70" y="326.64" angle="89.98" type="DEFAULT_VEHTYPE" speed="12.10" pos="48.61" lane="3.0.00_0" slope="0.00"/>
        <vehicle id="9" x="293.31" y="273.14" angle="269.99" type="DEFAULT_VEHTYPE" speed="9.45" pos="32.38" lane="10.0.00_0" slope="0.00"/>
    </timestep>
    <timestep time="15.00">
        <vehicle id="0" x="154.12" y="311.46" angle="180.08" type="DEFAULT_VEHTYPE" speed="8.51" pos="6.45" lane="-25.0.00_0" slope="0.00"/>
        <vehicle id="1" x="392.36" y="180.10" angle="180.00" type="DEFAULT_VEHTYPE" speed="12.49" pos="138.66" lane="8.0.00_0" slope="0.00"/>
        <vehicle id="10" x="291.08" y="330.64" angle="270.00" type="DEFAULT_VEHTYPE" speed="10.51" pos="34.61" lane="-1.0.00_0" slope="0.00"/>
        <vehicle id="11" x="302.15" y="133.45" angle="270.01" type="DEFAULT_VEHTYPE" speed="7.33" pos="23.58" lane="12.0.00_0" slope="0.00"/>
        <vehicle id="12" x="308.38" y="2.00" angle="270.00" type="DEFAULT_VEHTYPE" speed="6.61" pos="17.40" lane="6.0.00_0" slope="0.00"/>
        <vehicle id="13" x="-1.97" y="306.39" angle="180.02" type="DEFAULT_VEHTYPE" speed="4.76" pos="12.26" lane="-15.0.00_0" slope="0.00"/>
        <vehicle id="14" x="318.28" y="199.09" angle="270.03" type="DEFAULT_VEHTYPE" speed="2.32" pos="7.42" lane="4.0.00_0" slope="0.00"/>
        <vehicle id="15" x="338.77" y="16.26" angle="0.03" type="DEFAULT_VEHTYPE" speed="0.00" pos="5.10" lane="19.0.00_0" slope="0.00"/>
        <vehicle id="2" x="88.44" y="295.34" angle="179.98" type="DEFAULT_VEHTYPE" speed="11.82" pos="22.60" lane="-21.0.00_0" slope="0.00"/>
        <vehicle id="3" x="233.35" y="-1.99" angle="90.00" type="DEFAULT_VEHTYPE" speed="14.88" pos="131.67" lane="-6.0.00_0" slope="0.00"/>
        <vehicle id="4" x="181.46" y="-1.99" angle="90.00" type="DEFAULT_VEHTYPE" speed="13.23" pos="79.78" lane="-6.0.00_0" slope="0.00"/>
        <vehicle id="5" x="319.71" y="330.62" angle="270.01" type="DEFAULT_VEHTYPE" speed="8.01" pos="5.98" lane="-1.0.00_0" slope="0.00"/>
        <vehicle id="6" x="-2.00" y="247.76" angle="180.00" type="DEFAULT_VEHTYPE" speed="13.93" pos="70.89" lane="-15.0.00_0" slope="0.00"/>
        <vehicle id="7" x="392.37" y="260.01" angle="180.08" type="DEFAULT_VEHTYPE" speed="11.20" pos="58.75" lane="8.0.00_0" slope="0.00"/>
        <vehicle id="8" x="71.26" y="326.65" angle="89.98" type="DEFAULT_VEHTYPE" speed="11.56" pos="60.17" lane="3.0.00_0" slope="0.00"/>
        <vehicle id="9" x="281.46" y="273.13" angle="269.99" type="DEFAULT_VEHTYPE" speed="11.85" pos="44.23" lane="10.0.00_0" slope="0.00"/>
    </timestep>
    <timestep time="16.00">
        <vehicle id="0" x="154.11" y="300.85" angle="180.08" type="DEFAULT_VEHTYPE" speed="10.60" pos="17.05" lane="-25.0.00_0" slope="0.00"/>
        <vehicle id="1" x="392.36" y="167.54" angle="180.00" type="DEFAULT_VEHTYPE" speed="12.56" pos="151.22" lane="8.0.00_0" slope="0.00"/>
        <vehicle id="10" x="278.16" y="330.64" angle="270.00" type="DEFAULT_VEHTYPE" speed="12.93" pos="47.53" lane="-1.0.00_0" slope="0.00"/>
        <vehicle id="11" x="293.22" y="133.45" angle="270.01" type="DEFAULT_VEHTYPE" speed="8.92" pos="32.51" lane="12.0.00_0" slope="0.00"/>
        <vehicle id="12" x="299.34" y="2.00" angle="270.00" type="DEFAULT_VEHTYPE" speed="9.04" pos="26.44" lane="6.0.00_0" slope="0.00"/>
        <vehicle id="13" x="-1.98" y="299.41" angle="180.00" type="DEFAULT_VEHTYPE" speed="6.98" pos="19.24" lane="-15.0.00_0" slope="0.00"/>
        <vehicle id="14" x="313.49" y="199.10" angle="270.03" type="DEFAULT_VEHTYPE" speed="4.78" pos="12.21" lane="4.0.00_0" slope="0.00"/>
        <vehicle id="15" x="338.77" y="18.77" angle="0.03" type="DEFAULT_VEHTYPE" speed="2.51" pos="7.61" lane="19.0.00_0" slope="0.00"/>
        <vehicle id="16" x="334.83" y="114.35" angle="180.03" type="DEFAULT_VEHTYPE" speed="0.00" pos="5.10" lane="-19.0.00_0" slope="0.00"/>
        <vehicle id="2" x="88.44" y="282.29" angle="179.98" type="DEFAULT_VEHTYPE" speed="13.05" pos="0.17" lane=":184_0_0" slope="0.00"/>
        <vehicle id="3" x="248.08" y="-2.00" angle="90.10" type="DEFAULT_VEHTYPE" speed="14.73" pos="146.40" lane="-6.0.00_0" slope="0.00"/>
        <vehicle id="4" x="195.52" y="-1.99" angle="90.00" type="DEFAULT_VEHTYPE" speed="14.06" pos="93.84" lane="-6.0.00_0" slope="0.00"/>
        <vehicle id="5" x="309.66" y="330.63" angle="270.00" type="DEFAULT_VEHTYPE" speed="10.05" pos="16.03" lane="-1.0.00_0" slope="0.00"/>
        <vehicle id="6" x="-2.00" y="233.47" angle="180.00" type="DEFAULT_VEHTYPE" speed="14.29" pos="85.18" lane="-15.0.00_0" slope="0.00"/>
        <vehicle id="7" x="392.35" y="248.21" angle="180.09" type="DEFAULT_VEHTYPE" speed="11.80" pos="70.55" lane="8.0.00_0" slope="0.00"/>
        <vehicle id="8" x="78.33" y="326.65" angle="89.98" type="DEFAULT_VEHTYPE" speed="7.06" pos="67.24" lane="3.0.00_0" slope="0.00"/>
        <vehicle id="9" x="270.52" y="273.13" angle="269.99" type="DEFAULT_VEHTYPE" speed="10.94" pos="55.16" lane="10.0.00_0" slope="0.00"/>
    </timestep>
    <timestep time="17.00">
        <vehicle id="0" x="154.09" y="291.23" angle="180.08" type="DEFAULT_VEHTYPE" speed="9.63" pos="26.68" lane="-25.0.00_0" slope="0.00"/>
        <vehicle id="1" x="392.37" y="155.08" angle="179.89" type="DEFAULT_VEHTYPE" speed="12.46" pos="163.68" lane="8.0.00_0" slope="0.00"/>
        <vehicle id="10" x="263.64" y="330.64" angle="270.00" type="DEFAULT_VEHTYPE" speed="14.51" pos="62.05" lane="-1.0.00_0" slope="0.00"/>
        <vehicle id="11" x="282.21" y="133.45" angle="270.01" type="DEFAULT_VEHTYPE" speed="11.01" pos="43.52" lane="12.0.00_0" slope="0.00"/>
        <vehicle id="12" x="287.84" y="2.00" angle="270.00" type="DEFAULT_VEHTYPE" speed="11.50" pos="37.94" lane="6.0.00_0" slope="0.00"/>
        <vehicle id="13" x="-1.98" y="290.24" angle="180.00" type="DEFAULT_VEHTYPE" speed="9.17" pos="28.41" lane="-15.0.00_0" slope="0.00"/>
        <vehicle id="14" x="306.98" y="199.10" angle="270.03" type="DEFAULT_VEHTYPE" speed="6.51" pos="18.72" lane="4.0.00_0" slope="0.00"/>
        <vehicle id="15" x="338.78" y="23.43" angle="0.03" type="DEFAULT_VEHTYPE" speed="4.66" pos="12.27" lane="19.0.00_0" slope="0.00"/>
        <vehicle id="16" x="334.83" y="112.97" angle="180.03" type="DEFAULT_VEHTYPE" speed="1.38" pos="6.48" lane="-19.0.00_0" slope="0.00"/>
        <vehicle id="17" x="173.24" y="326.65" angle="90.00" type="DEFAULT_VEHTYPE" speed="0.00" pos="5.10" lane="1.0.00_0" slope="0.00"/>
        <vehicle id="2" x="88.44" y="268.82" angle="180.00" type="DEFAULT_VEHTYPE" speed="13.48" pos="13.64" lane=":184_0_0" slope="0.00"/>
        <vehicle id="3" x="263.10" y="-2.00" angle="90.00" type="DEFAULT_VEHTYPE" speed="15.02" pos="161.43" lane="-6.0.00_0" slope="0.00"/>
        <vehicle id="4" x="209.54" y="-1.99" angle="90.00" type="DEFAULT_VEHTYPE" speed="14.02" pos="107.87" lane="-6.0.00_0" slope="0.00"/>
        <vehicle id="5" x="298.68" y="330.64" angle="270.10" type="DEFAULT_VEHTYPE" speed="10.98" pos="27.01" lane="-1.0.00_0" slope="0.00"/>
        <vehicle id="6" x="-1.99" y="219.31" angle="180.00" type="DEFAULT_VEHTYPE" speed="14.16" pos="99.34" lane="-15.0.00_0" slope="0.00"/>
        <vehicle id="7" x="392.35" y="236.70" angle="180.00" type="DEFAULT_VEHTYPE" speed="11.51" pos="82.06" lane="8.0.00_0" slope="0.00"/>
        <vehicle id="8" x="84.84" y="325.25" angle="105.38" type="DEFAULT_VEHTYPE" speed="6.79" pos="5.67" lane=":77_4_0" slope="0.00"/>
        <vehicle id="9" x="258.94" y="273.13" angle="269.99" type="DEFAULT_VEHTYPE" speed="11.58" pos="66.74" lane="10.0.00_0" slope="0.00"/>
    </timestep>
    <timestep time="18.00">
        <vehicle id="0" x="154.08" y="284.88" angle="180.08" type="DEFAULT_VEHTYPE" speed="6.35" pos="33.03" lane="-25.0.00_0" slope="0.00"/>
        <vehicle id="1" x="392.37" y="143.29" angle="180.00" type="DEFAULT_VEHTYPE" speed="11.79" pos="175.47" lane="8.0.00_0" slope="0.00"/>
        <vehicle id="10" x="249.24" y="330.64" angle="270.00" type="DEFAULT_VEHTYPE" speed="14.40" pos="76.45" lane="-1.0.00_0" slope="0.00"/>
        <vehicle id="11" x="269.46" y="133.46" angle="270.01" type="DEFAULT_VEHTYPE" speed="12.75" pos="56.27" lane="12.0.00_0" slope="0.00"/>
        <vehicle id="12" x="274.94" y="2.00" angle="270.00" type="DEFAULT_VEHTYPE" speed="12.89" pos="50.84" lane="6.0.00_0" slope="0.00"/>
        <vehicle id="13" x="-1.99" y="279.56" angle="180.07" type="DEFAULT_VEHTYPE" speed="10.67" pos="39.09" lane="-15.0.00_0" slope="0.00"/>
        <vehicle id="14" x="298.68" y="199.10" angle="270.03" type="DEFAULT_VEHTYPE" speed="8.30" pos="27.02" lane="4.0.00_0" slope="0.00"/>
        <vehicle id="15" x="338.78" y="29.46" angle="0.03" type="DEFAULT_VEHTYPE" speed="6.04" pos="18.30" lane="19.0.00_0" slope="0.00"/>
        <vehicle id="16" x="334.82" y="109.90" angle="180.03" type="DEFAULT_VEHTYPE" speed="3.07" pos="9.55" lane="-19.0.00_0" slope="0.00"/>
        <vehicle id="17" x="175.49" y="326.65" angle="90.00" type="DEFAULT_VEHTYPE" speed="2.25" pos="7.35" lane="1.0.00_0" slope="0.00"/>
        <vehicle id="18" x="320.68" y="2.00" angle="270.00" type="DEFAULT_VEHTYPE" speed="0.00" pos="5.10" lane="6.0.00_0" slope="0.00"/>
        <vehicle id="2" x="88.44" y="255.68" angle="179.99" type="DEFAULT_VEHTYPE" speed="13.13" pos="4.78" lane="-22.0.00_0" slope="0.00"/>
        <vehicle id="3" x="277.80" y="-2.00" angle="90.00" type="DEFAULT_VEHTYPE" speed="14.70" pos="176.13" lane="-6.0.00_0" slope="0.00"/>
        <vehicle id="4" x="222.90" y="-1.99" angle="90.00" type="DEFAULT_VEHTYPE" speed="13.36" pos="121.23" lane="-6.0.00_0" slope="0.00"/>
        <vehicle id="5" x="287.76" y="330.64" angle="270.00" type="DEFAULT_VEHTYPE" speed="10.91" pos="37.93" lane="-1.0.00_0" slope="0.00"/>
        <vehicle id="6" x="-1.98" y="205.15" angle="180.00" type="DEFAULT_VEHTYPE" speed="14.15" pos="113.50" lane="-15.0.00_0" slope="0.00"/>
        <vehicle id="7" x="392.35" y="225.19" angle="180.00" type="DEFAULT_VEHTYPE" speed="11.51" pos="93.57" lane="8.0.00_0" slope="0.00"/>
        <vehicle id="8" x="88.14" y="319.91" angle="156.91" type="DEFAULT_VEHTYPE" speed="6.62" pos="12.29" lane=":77_4_0" slope="0.00"/>
        <vehicle id="9" x="247.75" y="273.13" angle="269.99" type="DEFAULT_VEHTYPE" speed="11.19" pos="77.94" lane="10.0.00_0" slope="0.00"/>
    </timestep>
    <timestep time="19.00">
        <vehicle id="0" x="152.60" y="276.78" angle="196.01" type="DEFAULT_VEHTYPE" speed="8.39" pos="5.93" lane=":167_0_0" slope="0.00"/>
        <vehicle id="1" x="392.37" y="130.44" angle="180.00" type="DEFAULT_VEHTYPE" speed="12.86" pos="188.32" lane="8.0.00_0" slope="0.00"/>
        <vehicle id="10" x="234.91" y="330.65" angle="270.00" type="DEFAULT_VEHTYPE" speed="14.33" pos="90.78" lane="-1.0.00_0" slope="0.00"/>
        <vehicle id="11" x="255.72" y="133.46" angle="270.01" type="DEFAULT_VEHTYPE" speed="13.74" pos="70.01" lane="12.0.00_0" slope="0.00"/>
        <vehicle id="12" x="260.66" y="2.00" angle="270.00" type="DEFAULT_VEHTYPE" speed="14.29" pos="65.12" lane="6.0.00_0" slope="0.00"/>
        <vehicle id="13" x="-1.99" y="267.55" angle="180.00" type="DEFAULT_VEHTYPE" speed="12.02" pos="51.10" lane="-15.0.00_0" slope="0.00"/>
        <vehicle id="14" x="288.69" y="199.11" angle="270.03" type="DEFAULT_VEHTYPE" speed="9.99" pos="37.01" lane="4.0.00_0" slope="0.00"/>
        <vehicle id="15" x="338.78" y="37.88" angle="0.03" type="DEFAULT_VEHTYPE" speed="8.42" pos="26.72" lane="19.0.00_0" slope="0.00"/>
        <vehicle id="16" x="334.82" y="105.11" angle="180.03" type="DEFAULT_VEHTYPE" speed="4.79" pos="14.34" lane="-19.0.00_0" slope="0.00"/>
        <vehicle id="17" x="180.21" y="326.65" angle="90.00" type="DEFAULT_VEHTYPE" speed="4.72" pos="12.07" lane="1.0.00_0" slope="0.00"/>
        <vehicle id="18" x="318.16" y="2.00" angle="270.00" type="DEFAULT_VEHTYPE" speed="2.52" pos="7.62" lane="6.0.00_0" slope="0.00"/>
        <vehicle id="19" x="6.04" y="330.15" angle="264.42" type="DEFAULT_VEHTYPE" speed="0.00" pos="5.10" lane="13.0.00_0" slope="0.00"/>
        <vehicle id="2" x="88.44" y="241.70" angle="179.99" type="DEFAULT_VEHTYPE" speed="13.98" pos="18.76" lane="-22.0.00_0" slope="0.00"/>
        <vehicle id="3" x="292.81" y="-2.00" angle="90.00" type="DEFAULT_VEHTYPE" speed="15.01" pos="191.14" lane="-6.0.00_0" slope="0.00"/>