<?xml version="1.0" encoding="UTF-8"?>

<!-- generated on Wed Aug 14 11:52:49 2019 by Eclipse SUMO Version 1.2.0
<configuration xmlns:xsi="http://www.w3.org/2001/XMLSchema-instance" xsi:noNamespaceSchemaLocation="http://sumo.dlr.de/xsd/sumoConfiguration.xsd">

    <input>
        <net-file value="Town01.net.xml"/>
        <route-files value="trips.trips.xml"/>
    </input>

    <output>
        <netstate-dump value="test.log"/>
        <fcd-output value="Town01_Car50_2.log"/>
    </output>

    <time>
        <begin value="0"/>
        <end value="10000"/>
    </time>

</configuration>
-->

<fcd-export xmlns:xsi="http://www.w3.org/2001/XMLSchema-instance" xsi:noNamespaceSchemaLocation="http://sumo.dlr.de/xsd/fcd_file.xsd">
    <timestep time="0.00">
        <vehicle id="0" x="172.33" y="269.12" angle="89.99" type="DEFAULT_VEHTYPE" speed="0.00" pos="5.10" lane="-10.0.00_0" slope="0.00"/>
    </timestep>
    <timestep time="1.00">
        <vehicle id="0" x="174.21" y="269.12" angle="89.99" type="DEFAULT_VEHTYPE" speed="1.88" pos="6.98" lane="-10.0.00_0" slope="0.00"/>
        <vehicle id="1" x="92.45" y="213.87" angle="359.99" type="DEFAULT_VEHTYPE" speed="0.00" pos="5.10" lane="22.0.00_0" slope="0.00"/>
    </timestep>
    <timestep time="2.00">
        <vehicle id="0" x="178.03" y="269.12" angle="89.99" type="DEFAULT_VEHTYPE" speed="3.82" pos="10.80" lane="-10.0.00_0" slope="0.00"/>
        <vehicle id="1" x="92.45" y="215.59" angle="359.99" type="DEFAULT_VEHTYPE" speed="1.71" pos="6.81" lane="22.0.00_0" slope="0.00"/>
        <vehicle id="2" x="379.55" y="330.59" angle="270.03" type="DEFAULT_VEHTYPE" speed="0.00" pos="5.10" lane="-0.0.00_0" slope="0.00"/>
    </timestep>
    <timestep time="3.00">
        <vehicle id="0" x="184.28" y="269.12" angle="89.99" type="DEFAULT_VEHTYPE" speed="6.25" pos="17.05" lane="-10.0.00_0" slope="0.00"/>
        <vehicle id="1" x="92.45" y="219.49" angle="359.99" type="DEFAULT_VEHTYPE" speed="3.91" pos="10.72" lane="22.0.00_0" slope="0.00"/>
        <vehicle id="2" x="377.97" y="330.59" angle="270.03" type="DEFAULT_VEHTYPE" speed="1.58" pos="6.68" lane="-0.0.00_0" slope="0.00"/>
        <vehicle id="3" x="88.43" y="312.84" angle="179.98" type="DEFAULT_VEHTYPE" speed="0.00" pos="5.10" lane="-21.0.00_0" slope="0.00"/>
    </timestep>
    <timestep time="4.00">
        <vehicle id="0" x="192.32" y="269.12" angle="89.99" type="DEFAULT_VEHTYPE" speed="8.04" pos="25.09" lane="-10.0.00_0" slope="0.00"/>
        <vehicle id="1" x="92.45" y="224.85" angle="359.99" type="DEFAULT_VEHTYPE" speed="5.36" pos="16.08" lane="22.0.00_0" slope="0.00"/>
        <vehicle id="2" x="374.01" y="330.60" angle="270.03" type="DEFAULT_VEHTYPE" speed="3.96" pos="10.64" lane="-0.0.00_0" slope="0.00"/>
        <vehicle id="3" x="88.43" y="310.48" angle="179.98" type="DEFAULT_VEHTYPE" speed="2.36" pos="7.46" lane="-21.0.00_0" slope="0.00"/>
        <vehicle id="4" x="334.83" y="114.35" angle="180.03" type="DEFAULT_VEHTYPE" speed="0.00" pos="5.10" lane="-19.0.00_0" slope="0.00"/>
    </timestep>
    <timestep time="5.00">
        <vehicle id="0" x="202.17" y="269.12" angle="89.99" type="DEFAULT_VEHTYPE" speed="9.85" pos="34.93" lane="-10.0.00_0" slope="0.00"/>
        <vehicle id="1" x="92.45" y="231.63" angle="359.99" type="DEFAULT_VEHTYPE" speed="6.78" pos="22.86" lane="22.0.00_0" slope="0.00"/>
        <vehicle id="2" x="368.45" y="330.60" angle="270.03" type="DEFAULT_VEHTYPE" speed="5.57" pos="16.20" lane="-0.0.00_0" slope="0.00"/>
        <vehicle id="3" x="88.43" y="306.76" angle="179.98" type="DEFAULT_VEHTYPE" speed="3.72" pos="11.19" lane="-21.0.00_0" slope="0.00"/>
        <vehicle id="4" x="334.83" y="112.97" angle="180.03" type="DEFAULT_VEHTYPE" speed="1.38" pos="6.48" lane="-19.0.00_0" slope="0.00"/>
        <vehicle id="5" x="139.92" y="330.66" angle="270.00" type="DEFAULT_VEHTYPE" speed="0.00" pos="5.10" lane="-2.0.00_0" slope="0.00"/>
    </timestep>
    <timestep time="6.00">
        <vehicle id="0" x="213.91" y="269.13" angle="89.99" type="DEFAULT_VEHTYPE" speed="11.74" pos="46.68" lane="-10.0.00_0" slope="0.00"/>
        <vehicle id="1" x="92.44" y="240.98" angle="359.99" type="DEFAULT_VEHTYPE" speed="9.35" pos="32.20" lane="22.0.00_0" slope="0.00"/>
        <vehicle id="2" x="360.63" y="330.60" angle="270.03" type="DEFAULT_VEHTYPE" speed="7.82" pos="24.02" lane="-0.0.00_0" slope="0.00"/>
        <vehicle id="3" x="88.43" y="301.41" angle="179.98" type="DEFAULT_VEHTYPE" speed="5.34" pos="16.53" lane="-21.0.00_0" slope="0.00"/>
        <vehicle id="4" x="334.82" y="109.90" angle="180.03" type="DEFAULT_VEHTYPE" speed="3.07" pos="9.55" lane="-19.0.00_0" slope="0.00"/>
        <vehicle id="5" x="137.93" y="330.66" angle="270.00" type="DEFAULT_VEHTYPE" speed="1.99" pos="7.09" lane="-2.0.00_0" slope="0.00"/>
        <vehicle id="6" x="392.43" y="313.66" angle="180.07" type="DEFAULT_VEHTYPE" speed="0.00" pos="5.10" lane="8.0.00_0" slope="0.00"/>
    </timestep>
    <timestep time="7.00">
        <vehicle id="0" x="228.16" y="269.13" angle="89.99" type="DEFAULT_VEHTYPE" speed="14.24" pos="60.92" lane="-10.0.00_0" slope="0.00"/>
        <vehicle id="1" x="92.44" y="252.85" angle="359.99" type="DEFAULT_VEHTYPE" speed="11.87" pos="44.07" lane="22.0.00_0" slope="0.00"/>
        <vehicle id="2" x="350.60" y="330.61" angle="270.03" type="DEFAULT_VEHTYPE" speed="10.03" pos="34.05" lane="-0.0.00_0" slope="0.00"/>
        <vehicle id="3" x="88.44" y="294.35" angle="179.98" type="DEFAULT_VEHTYPE" speed="7.07" pos="23.60" lane="-21.0.00_0" slope="0.00"/>
        <vehicle id="4" x="334.82" y="105.11" angle="180.03" type="DEFAULT_VEHTYPE" speed="4.79" pos="14.34" lane="-19.0.00_0" slope="0.00"/>
        <vehicle id="5" x="134.08" y="330.66" angle="270.00" type="DEFAULT_VEHTYPE" speed="3.84" pos="10.93" lane="-2.0.00_0" slope="0.00"/>
        <vehicle id="6" x="392.43" y="311.25" angle="180.11" type="DEFAULT_VEHTYPE" speed="2.41" pos="7.51" lane="8.0.00_0" slope="0.00"/>
        <vehicle id="7" x="92.46" y="147.39" angle="359.99" type="DEFAULT_VEHTYPE" speed="0.00" pos="5.10" lane="23.0.00_0" slope="0.00"/>
    </timestep>
    <timestep time="8.00">
        <vehicle id="0" x="241.60" y="269.13" angle="89.99" type="DEFAULT_VEHTYPE" speed="13.44" pos="74.36" lane="-10.0.00_0" slope="0.00"/>
        <vehicle id="1" x="92.44" y="264.72" angle="360.00" type="DEFAULT_VEHTYPE" speed="11.87" pos="4.26" lane=":184_5_0" slope="0.00"/>
        <vehicle id="2" x="343.60" y="329.97" angle="262.60" type="DEFAULT_VEHTYPE" speed="7.04" pos="4.73" lane=":43_1_0" slope="0.00"/>
        <vehicle id="3" x="88.44" y="285.54" angle="179.98" type="DEFAULT_VEHTYPE" speed="8.81" pos="32.41" lane="-21.0.00_0" slope="0.00"/>
        <vehicle id="4" x="334.82" y="98.44" angle="180.03" type="DEFAULT_VEHTYPE" speed="6.67" pos="21.01" lane="-19.0.00_0" slope="0.00"/>
        <vehicle id="5" x="127.69" y="330.66" angle="270.00" type="DEFAULT_VEHTYPE" speed="6.39" pos="17.33" lane="-2.0.00_0" slope="0.00"/>
        <vehicle id="6" x="392.43" y="307.37" angle="180.00" type="DEFAULT_VEHTYPE" speed="3.87" pos="11.39" lane="8.0.00_0" slope="0.00"/>
        <vehicle id="7" x="92.46" y="149.40" angle="359.99" type="DEFAULT_VEHTYPE" speed="2.01" pos="7.11" lane="23.0.00_0" slope="0.00"/>
        <vehicle id="8" x="106.58" y="195.20" angle="90.03" type="DEFAULT_VEHTYPE" speed="0.00" pos="5.10" lane="-4.0.00_0" slope="0.00"/>
    </timestep>
    <timestep time="9.00">
        <vehicle id="0" x="255.84" y="269.13" angle="89.99" type="DEFAULT_VEHTYPE" speed="14.25" pos="88.61" lane="-10.0.00_0" slope="0.00"/>
        <vehicle id="1" x="92.44" y="276.47" angle="0.00" type="DEFAULT_VEHTYPE" speed="11.75" pos="16.01" lane=":184_5_0" slope="0.00"/>
        <vehicle id="2" x="336.34" y="324.29" angle="219.33" type="DEFAULT_VEHTYPE" speed="9.64" pos="6.09" lane=":43_6_0" slope="0.00"/>
        <vehicle id="3" x="88.44" y="274.47" angle="180.00" type="DEFAULT_VEHTYPE" speed="11.08" pos="7.99" lane=":184_0_0" slope="0.00"/>
        <vehicle id="4" x="334.81" y="90.35" angle="180.03" type="DEFAULT_VEHTYPE" speed="8.09" pos="29.10" lane="-19.0.00_0" slope="0.00"/>
        <vehicle id="5" x="119.88" y="330.66" angle="270.00" type="DEFAULT_VEHTYPE" speed="7.81" pos="25.13" lane="-2.0.00_0" slope="0.00"/>
        <vehicle id="6" x="392.42" y="301.07" angle="180.06" type="DEFAULT_VEHTYPE" speed="6.30" pos="17.69" lane="8.0.00_0" slope="0.00"/>
        <vehicle id="7" x="92.46" y="153.24" angle="359.99" type="DEFAULT_VEHTYPE" speed="3.84" pos="10.95" lane="23.0.00_0" slope="0.00"/>
        <vehicle id="8" x="108.71" y="195.20" angle="90.03" type="DEFAULT_VEHTYPE" speed="2.13" pos="7.23" lane="-4.0.00_0" slope="0.00"/>
        <vehicle id="9" x="74.37" y="2.03" angle="270.03" type="DEFAULT_VEHTYPE" speed="0.00" pos="5.10" lane="5.0.00_0" slope="0.00"/>
    </timestep>
    <timestep time="10.00">
        <vehicle id="0" x="269.76" y="269.13" angle="89.99" type="DEFAULT_VEHTYPE" speed="13.92" pos="102.53" lane="-10.0.00_0" slope="0.00"/>
        <vehicle id="1" x="92.44" y="288.79" angle="359.98" type="DEFAULT_VEHTYPE" speed="12.31" pos="6.33" lane="21.0.00_0" slope="0.00"/>
        <vehicle id="10" x="392.43" y="313.66" angle="180.07" type="DEFAULT_VEHTYPE" speed="0.00" pos="5.10" lane="8.0.00_0" slope="0.00"/>
        <vehicle id="2" x="334.95" y="315.56" angle="184.69" type="DEFAULT_VEHTYPE" speed="8.95" pos="2.26" lane="-16.0.00_0" slope="0.00"/>
        <vehicle id="3" x="88.44" y="260.93" angle="180.00" type="DEFAULT_VEHTYPE" speed="13.54" pos="21.53" lane=":184_0_0" slope="0.00"/>
        <vehicle id="4" x="334.81" y="80.16" angle="180.03" type="DEFAULT_VEHTYPE" speed="10.19" pos="39.29" lane="-19.0.00_0" slope="0.00"/>
        <vehicle id="5" x="110.43" y="330.66" angle="270.00" type="DEFAULT_VEHTYPE" speed="9.45" pos="34.59" lane="-2.0.00_0" slope="0.00"/>
        <vehicle id="6" x="392.41" y="292.65" angle="180.03" type="DEFAULT_VEHTYPE" speed="8.43" pos="26.11" lane="8.0.00_0" slope="0.00"/>
        <vehicle id="7" x="92.46" y="158.61" angle="359.99" type="DEFAULT_VEHTYPE" speed="5.37" pos="16.32" lane="23.0.00_0" slope="0.00"/>
        <vehicle id="8" x="112.60" y="195.19" angle="90.03" type="DEFAULT_VEHTYPE" speed="3.89" pos="11.12" lane="-4.0.00_0" slope="0.00"/>
        <vehicle id="9" x="73.01" y="2.03" angle="270.03" type="DEFAULT_VEHTYPE" speed="1.36" pos="6.46" lane="5.0.00_0" slope="0.00"/>
    </timestep>
    <timestep time="11.00">
        <vehicle id="0" x="284.10" y="269.13" angle="89.99" type="DEFAULT_VEHTYPE" speed="14.33" pos="116.86" lane="-10.0.00_0" slope="0.00"/>
        <vehicle id="1" x="92.43" y="300.56" angle="359.98" type="DEFAULT_VEHTYPE" speed="11.77" pos="18.10" lane="21.0.00_0" slope="0.00"/>
        <vehicle id="10" x="392.43" y="311.10" angle="180.11" type="DEFAULT_VEHTYPE" speed="2.56" pos="7.66" lane="8.0.00_0" slope="0.00"/>
        <vehicle id="11" x="389.29" y="-1.11" angle="79.65" type="DEFAULT_VEHTYPE" speed="0.00" pos="5.10" lane="14.0.00_0" slope="0.00"/>
        <vehicle id="2" x="334.94" y="304.82" angle="180.03" type="DEFAULT_VEHTYPE" speed="10.74" pos="13.00" lane="-16.0.00_0" slope="0.00"/>
        <vehicle id="3" x="88.44" y="246.96" angle="179.99" type="DEFAULT_VEHTYPE" speed="13.96" pos="13.50" lane="-22.0.00_0" slope="0.00"/>
        <vehicle id="4" x="334.80" y="67.47" angle="180.03" type="DEFAULT_VEHTYPE" speed="12.69" pos="51.98" lane="-19.0.00_0" slope="0.00"/>
        <vehicle id="5" x="102.66" y="330.65" angle="269.86" type="DEFAULT_VEHTYPE" speed="7.77" pos="0.10" lane=":77_1_0" slope="0.00"/>
        <vehicle id="6" x="392.40" y="282.43" angle="180.00" type="DEFAULT_VEHTYPE" speed="10.22" pos="36.33" lane="8.0.00_0" slope="0.00"/>
        <vehicle id="7" x="92.45" y="166.40" angle="359.99" type="DEFAULT_VEHTYPE" speed="7.80" pos="24.12" lane="23.0.00_0" slope="0.00"/>
        <vehicle id="8" x="118.82" y="195.19" angle="90.03" type="DEFAULT_VEHTYPE" speed="6.22" pos="17.34" lane="-4.0.00_0" slope="0.00"/>
        <vehicle id="9" x="70.15" y="2.04" angle="270.03" type="DEFAULT_VEHTYPE" speed="2.86" pos="9.32" lane="5.0.00_0" slope="0.00"/>
    </timestep>
    <timestep time="12.00">
        <vehicle id="0" x="298.39" y="269.14" angle="89.99" type="DEFAULT_VEHTYPE" speed="14.29" pos="131.15" lane="-10.0.00_0" slope="0.00"/>
        <vehicle id="1" x="92.43" y="310.28" angle="359.98" type="DEFAULT_VEHTYPE" speed="9.72" pos="27.82" lane="21.0.00_0" slope="0.00"/>
        <vehicle id="10" x="392.43" y="306.96" angle="180.00" type="DEFAULT_VEHTYPE" speed="4.15" pos="11.80" lane="8.0.00_0" slope="0.00"/>
        <vehicle id="11" x="391.11" y="-0.22" angle="70.28" type="DEFAULT_VEHTYPE" speed="2.03" pos="7.13" lane="14.0.00_0" slope="0.00"/>
        <vehicle id="12" x="3.17" y="323.51" angle="13.52" type="DEFAULT_VEHTYPE" speed="0.00" pos="5.10" lane="-13.0.00_0" slope="0.00"/>
        <vehicle id="2" x="334.94" y="291.97" angle="180.03" type="DEFAULT_VEHTYPE" speed="12.85" pos="25.85" lane="-16.0.00_0" slope="0.00"/>
        <vehicle id="3" x="88.45" y="231.97" angle="179.99" type="DEFAULT_VEHTYPE" speed="14.99" pos="28.48" lane="-22.0.00_0" slope="0.00"/>
        <vehicle id="4" x="334.79" y="54.07" angle="180.03" type="DEFAULT_VEHTYPE" speed="13.41" pos="65.38" lane="-19.0.00_0" slope="0.00"/>
        <vehicle id="5" x="96.20" y="329.71" angle="261.40" type="DEFAULT_VEHTYPE" speed="6.54" pos="6.64" lane=":77_1_0" slope="0.00"/>
        <vehicle id="6" x="392.38" y="270.31" angle="180.11" type="DEFAULT_VEHTYPE" speed="12.13" pos="48.45" lane="8.0.00_0" slope="0.00"/>
        <vehicle id="7" x="92.45" y="175.64" angle="359.99" type="DEFAULT_VEHTYPE" speed="9.24" pos="33.36" lane="23.0.00_0" slope="0.00"/>
        <vehicle id="8" x="127.62" y="195.19" angle="90.03" type="DEFAULT_VEHTYPE" speed="8.80" pos="26.14" lane="-4.0.00_0" slope="0.00"/>
        <vehicle id="9" x="65.83" y="2.04" angle="270.03" type="DEFAULT_VEHTYPE" speed="4.32" pos="13.64" lane="5.0.00_0" slope="0.00"/>
    </timestep>
    <timestep time="13.00">
        <vehicle id="0" x="311.36" y="269.14" angle="89.99" type="DEFAULT_VEHTYPE" speed="12.97" pos="144.12" lane="-10.0.00_0" slope="0.00"/>
        <vehicle id="1" x="92.43" y="315.50" angle="359.98" type="DEFAULT_VEHTYPE" speed="5.22" pos="33.05" lane="21.0.00_0" slope="0.00"/>
        <vehicle id="10" x="392.42" y="300.54" angle="180.03" type="DEFAULT_VEHTYPE" speed="6.42" pos="18.22" lane="8.0.00_0" slope="0.00"/>
        <vehicle id="11" x="394.10" y="2.38" angle="51.76" type="DEFAULT_VEHTYPE" speed="3.98" pos="11.11" lane="14.0.00_0" slope="0.00"/>
        <vehicle id="12" x="4.51" y="324.95" angle="29.45" type="DEFAULT_VEHTYPE" speed="1.98" pos="7.08" lane="-13.0.00_0" slope="0.00"/>
        <vehicle id="13" x="92.48" y="16.41" angle="359.99" type="DEFAULT_VEHTYPE" speed="0.00" pos="5.10" lane="24.0.00_0" slope="0.00"/>
        <vehicle id="2" x="334.93" y="279.11" angle="180.03" type="DEFAULT_VEHTYPE" speed="12.86" pos="3.09" lane=":111_1_0" slope="0.00"/>
        <vehicle id="3" x="88.45" y="217.32" angle="179.99" type="DEFAULT_VEHTYPE" speed="14.65" pos="43.13" lane="-22.0.00_0" slope="0.00"/>
        <vehicle id="4" x="334.79" y="41.04" angle="180.03" type="DEFAULT_VEHTYPE" speed="13.03" pos="78.41" lane="-19.0.00_0" slope="0.00"/>
        <vehicle id="5" x="90.19" y="324.78" angle="223.59" type="DEFAULT_VEHTYPE" speed="8.01" pos="5.77" lane=":77_6_0" slope="0.00"/>
        <vehicle id="6" x="392.36" y="255.93" angle="180.10" type="DEFAULT_VEHTYPE" speed="14.37" pos="62.83" lane="8.0.00_0" slope="0.00"/>
        <vehicle id="7" x="92.45" y="186.64" angle="359.99" type="DEFAULT_VEHTYPE" speed="11.00" pos="44.36" lane="23.0.00_0" slope="0.00"/>
        <vehicle id="8" x="138.24" y="195.18" angle="90.03" type="DEFAULT_VEHTYPE" speed="10.62" pos="36.76" lane="-4.0.00_0" slope="0.00"/>
        <vehicle id="9" x="59.46" y="2.04" angle="270.03" type="DEFAULT_VEHTYPE" speed="6.38" pos="20.01" lane="5.0.00_0" slope="0.00"/>
    </timestep>
    <timestep time="14.00">
        <vehicle id="0" x="320.50" y="269.14" angle="89.99" type="DEFAULT_VEHTYPE" speed="9.14" pos="153.26" lane="-10.0.00_0" slope="0.00"/>
        <vehicle id="1" x="93.52" y="322.38" angle="12.79" type="DEFAULT_VEHTYPE" speed="7.08" pos="4.64" lane=":77_2_0" slope="0.00"/>
        <vehicle id="10" x="392.41" y="292.13" angle="180.00" type="DEFAULT_VEHTYPE" speed="8.41" pos="26.63" lane="8.0.00_0" slope="0.00"/>
        <vehicle id="11" x="396.36" y="8.40" angle="16.46" type="DEFAULT_VEHTYPE" speed="6.54" pos="17.66" lane="14.0.00_0" slope="0.00"/>
        <vehicle id="12" x="8.32" y="326.55" angle="64.56" type="DEFAULT_VEHTYPE" speed="4.19" pos="11.27" lane="-13.0.00_0" slope="0.00"/>
        <vehicle id="13" x="92.48" y="18.37" angle="359.99" type="DEFAULT_VEHTYPE" speed="1.96" pos="7.06" lane="24.0.00_0" slope="0.00"/>
        <vehicle id="14" x="15.32" y="-1.93" angle="90.03" type="DEFAULT_VEHTYPE" speed="0.00" pos="5.10" lane="-5.0.00_0" slope="0.00"/>
        <vehicle id="2" x="334.92" y="265.34" angle="180.03" type="DEFAULT_VEHTYPE" speed="13.77" pos="16.86" lane=":111_1_0" slope="0.00"/>
        <vehicle id="3" x="88.45" y="202.47" angle="180.00" type="DEFAULT_VEHTYPE" speed="14.85" pos="6.30" lane=":156_0_0" slope="0.00"/>
        <vehicle id="4" x="334.78" y="27.01" angle="180.03" type="DEFAULT_VEHTYPE" speed="14.02" pos="92.44" lane="-19.0.00_0" slope="0.00"/>
        <vehicle id="5" x="88.43" y="317.85" angle="189.04" type="DEFAULT_VEHTYPE" speed="7.26" pos="0.09" lane="-21.0.00_0" slope="0.00"/>
        <vehicle id="6" x="392.35" y="241.65" angle="180.00" type="DEFAULT_VEHTYPE" speed="14.29" pos="77.11" lane="8.0.00_0" slope="0.00"/>
        <vehicle id="7" x="92.45" y="197.78" angle="0.00" type="DEFAULT_VEHTYPE" speed="11.14" pos="11.01" lane=":156_5_0" slope="0.00"/>
        <vehicle id="8" x="150.87" y="195.18" angle="90.03" type="DEFAULT_VEHTYPE" speed="12.63" pos="49.39" lane="-4.0.00_0" slope="0.00"/>
        <vehicle id="9" x="50.59" y="2.05" angle="270.03" type="DEFAULT_VEHTYPE" speed="8.87" pos="28.88" lane="5.0.00_0" slope="0.00"/>
    </timestep>
    <timestep time="15.00">
        <vehicle id="0" x="325.14" y="269.14" angle="89.99" type="DEFAULT_VEHTYPE" speed="4.64" pos="157.90" lane="-10.0.00_0" slope="0.00"/>
        <vehicle id="1" x="99.80" y="326.30" angle="69.41" type="DEFAULT_VEHTYPE" speed="7.76" pos="12.40" lane=":77_2_0" slope="0.00"/>
        <vehicle id="10" x="392.40" y="281.26" angle="180.01" type="DEFAULT_VEHTYPE" speed="10.87" pos="37.50" lane="8.0.00_0" slope="0.00"/>
        <vehicle id="11" x="396.41" y="16.57" angle="0.00" type="DEFAULT_VEHTYPE" speed="8.27" pos="6.50" lane="-8.0.00_0" slope="0.00"/>
        <vehicle id="12" x="13.74" y="326.63" angle="89.65" type="DEFAULT_VEHTYPE" speed="5.52" pos="2.65" lane="3.0.00_0" slope="0.00"/>
        <vehicle id="13" x="92.48" y="22.81" angle="359.99" type="DEFAULT_VEHTYPE" speed="4.44" pos="11.50" lane="24.0.00_0" slope="0.00"/>
        <vehicle id="14" x="17.53" y="-1.93" angle="90.03" type="DEFAULT_VEHTYPE" speed="2.21" pos="7.31" lane="-5.0.00_0" slope="0.00"/>
        <vehicle id="15" x="320.63" y="133.45" angle="270.01" type="DEFAULT_VEHTYPE" speed="0.00" pos="5.10" lane="12.0.00_0" slope="0.00"/>
        <vehicle id="2" x="334.92" y="252.46" angle="180.03" type="DEFAULT_VEHTYPE" speed="12.88" pos="7.12" lane="-17.0.00_0" slope="0.00"/>
        <vehicle id="3" x="88.45" y="188.24" angle="180.00" type="DEFAULT_VEHTYPE" speed="14.23" pos="20.53" lane=":156_0_0" slope="0.00"/>
        <vehicle id="4" x="334.77" y="17.49" angle="180.03" type="DEFAULT_VEHTYPE" speed="9.52" pos="101.96" lane="-19.0.00_0" slope="0.00"/>
        <vehicle id="5" x="88.43" y="308.54" angle="179.98" type="DEFAULT_VEHTYPE" speed="9.31" pos="9.40" lane="-21.0.00_0" slope="0.00"/>
        <vehicle id="6" x="392.35" y="228.27" angle="180.00" type="DEFAULT_VEHTYPE" speed="13.38" pos="90.49" lane="8.0.00_0" slope="0.00"/>
        <vehicle id="7" x="92.45" y="209.57" angle="360.00" type="DEFAULT_VEHTYPE" speed="11.79" pos="0.80" lane="22.0.00_0" slope="0.00"/>
        <vehicle id="8" x="162.96" y="195.17" angle="90.03" type="DEFAULT_VEHTYPE" speed="12.10" pos="61.48" lane="-4.0.00_0" slope="0.00"/>
        <vehicle id="9" x="39.29" y="2.05" angle="270.03" type="DEFAULT_VEHTYPE" speed="11.29" pos="40.18" lane="5.0.00_0" slope="0.00"/>
    </timestep>
    <timestep time="16.00">
        <vehicle id="0" x="331.50" y="267.44" angle="108.18" type="DEFAULT_VEHTYPE" speed="6.72" pos="6.17" lane=":111_4_0" slope="0.00"/>
        <vehicle id="1" x="107.15" y="326.66" angle="89.16" type="DEFAULT_VEHTYPE" speed="7.37" pos="4.40" lane="2.0.00_0" slope="0.00"/>
        <vehicle id="10" x="392.38" y="268.77" angle="180.11" type="DEFAULT_VEHTYPE" speed="12.48" pos="49.99" lane="8.0.00_0" slope="0.00"/>
        <vehicle id="11" x="396.40" y="26.16" angle="359.89" type="DEFAULT_VEHTYPE" speed="9.59" pos="16.09" lane="-8.0.00_0" slope="0.00"/>
        <vehicle id="12" x="20.64" y="326.63" angle="89.98" type="DEFAULT_VEHTYPE" speed="6.90" pos="9.55" lane="3.0.00_0" slope="0.00"/>
        <vehicle id="13" x="92.48" y="28.64" angle="359.99" type="DEFAULT_VEHTYPE" speed="5.83" pos="17.33" lane="24.0.00_0" slope="0.00"/>
        <vehicle id="14" x="22.03" y="-1.94" angle="90.03" type="DEFAULT_VEHTYPE" speed="4.51" pos="11.81" lane="-5.0.00_0" slope="0.00"/>
        <vehicle id="15" x="318.72" y="133.45" angle="270.01" type="DEFAULT_VEHTYPE" speed="1.91" pos="7.01" lane="12.0.00_0" slope="0.00"/>
        <vehicle id="16" x="92.44" y="287.56" angle="359.98" type="DEFAULT_VEHTYPE" speed="0.00" pos="5.10" lane="21.0.00_0" slope="0.00"/>
        <vehicle id="2" x="334.91" y="239.01" angle="180.03" type="DEFAULT_VEHTYPE" speed="13.46" pos="20.57" lane="-17.0.00_0" slope="0.00"/>
        <vehicle id="3" x="88.45" y="173.83" angle="179.99" type="DEFAULT_VEHTYPE" speed="14.41" pos="12.94" lane="-23.0.00_0" slope="0.00"/>
        <vehicle id="4" x="334.77" y="12.47" angle="180.03" type="DEFAULT_VEHTYPE" speed="5.02" pos="106.98" lane="-19.0.00_0" slope="0.00"/>
        <vehicle id="5" x="88.44" y="297.28" angle="179.98" type="DEFAULT_VEHTYPE" speed="11.26" pos="20.66" lane="-21.0.00_0" slope="0.00"/>
        <vehicle id="6" x="392.35" y="213.80" angle="180.00" type="DEFAULT_VEHTYPE" speed="14.47" pos="104.96" lane="8.0.00_0" slope="0.00"/>
        <vehicle id="7" x="92.45" y="220.93" angle="359.99" type="DEFAULT_VEHTYPE" speed="11.36" pos="12.16" lane="22.0.00_0" slope="0.00"/>
        <vehicle id="8" x="174.76" y="195.16" angle="90.03" type="DEFAULT_VEHTYPE" speed="11.80" pos="73.29" lane="-4.0.00_0" slope="0.00"/>
        <vehicle id="9" x="28.49" y="2.06" angle="270.03" type="DEFAULT_VEHTYPE" speed="10.81" pos="50.98" lane="5.0.00_0" slope="0.00"/>
    </timestep>
    <timestep time="17.00">
        <vehicle id="0" x="334.88" y="259.85" angle="167.48" type="DEFAULT_VEHTYPE" speed="8.71" pos="14.88" lane=":111_4_0" slope="0.00"/>
        <vehicle id="1" x="116.51" y="326.66" angle="90.00" type="DEFAULT_VEHTYPE" speed="9.36" pos="13.76" lane="2.0.00_0" slope="0.00"/>
        <vehicle id="10" x="392.36" y="254.79" angle="180.11" type="DEFAULT_VEHTYPE" speed="13.98" pos="63.97" lane="8.0.00_0" slope="0.00"/>
        <vehicle id="11" x="396.40" y="38.25" angle="0.00" type="DEFAULT_VEHTYPE" speed="12.09" pos="28.18" lane="-8.0.00_0" slope="0.00"/>
        <vehicle id="12" x="30.05" y="326.64" angle="89.98" type="DEFAULT_VEHTYPE" speed="9.42" pos="18.96" lane="3.0.00_0" slope="0.00"/>
        <vehicle id="13" x="92.48" y="36.85" angle="359.99" type="DEFAULT_VEHTYPE" speed="8.21" pos="25.54" lane="24.0.00_0" slope="0.00"/>
        <vehicle id="14" x="28.94" y="-1.94" angle="90.03" type="DEFAULT_VEHTYPE" speed="6.90" pos="18.72" lane="-5.0.00_0" slope="0.00"/>
        <vehicle id="15" x="314.73" y="133.45" angle="270.01" type="DEFAULT_VEHTYPE" speed="4.00" pos="11.00" lane="12.0.00_0" slope="0.00"/>
        <vehicle id="16" x="92.44" y="290.09" angle="359.98" type="DEFAULT_VEHTYPE" speed="2.53" pos="7.63" lane="21.0.00_0" slope="0.00"/>
        <vehicle id="17" x="338.77" y="16.26" angle="0.03" type="DEFAULT_VEHTYPE" speed="0.00" pos="5.10" lane="19.0.00_0" slope="0.00"/>
        <vehicle id="2" x="334.90" y="225.89" angle="180.03" type="DEFAULT_VEHTYPE" speed="13.11" pos="33.69" lane="-17.0.00_0" slope="0.00"/>
        <vehicle id="3" x="88.46" y="158.81" angle="179.99" type="DEFAULT_VEHTYPE" speed="15.02" pos="27.96" lane="-23.0.00_0" slope="0.00"/>
        <vehicle id="4" x="333.38" y="5.76" angle="195.27" type="DEFAULT_VEHTYPE" speed="6.98" pos="5.67" lane=":60_0_0" slope="0.00"/>
        <vehicle id="5" x="88.44" y="285.90" angle="179.98" type="DEFAULT_VEHTYPE" speed="11.39" pos="32.05" lane="-21.0.00_0" slope="0.00"/>
        <vehicle id="6" x="392.36" y="199.81" angle="179.94" type="DEFAULT_VEHTYPE" speed="13.98" pos="118.95" lane="8.0.00_0" slope="0.00"/>
        <vehicle id="7" x="92.45" y="232.84" angle="359.99" type="DEFAULT_VEHTYPE" speed="11.90" pos="24.06" lane="22.0.00_0" slope="0.00"/>
        <vehicle id="8" x="187.79" y="195.16" angle="90.03" type="DEFAULT_VEHTYPE" speed="13.03" pos="86.31" lane="-4.0.00_0" slope="0.00"/>
        <vehicle id="9" x="17.13" y="2.07" angle="270.03" type="DEFAULT_VEHTYPE" speed="11.36" pos="62.34" lane="5.0.00_0" slope="0.00"/>
    </timestep>
    <timestep time="18.00">
        <vehicle id="0" x="334.92" y="251.78" angle="180.03" type="DEFAULT_VEHTYPE" speed="8.08" pos="7.80" lane="-17.0.00_0" slope="0.00"/>
        <vehicle id="1" x="127.36" y="326.66" angle="90.00" type="DEFAULT_VEHTYPE" speed="10.85" pos="24.61" lane="2.0.00_0" slope="0.00"/>
        <vehicle id="10" x="392.35" y="240.15" angle="180.00" type="DEFAULT_VEHTYPE" speed="14.64" pos="78.61" lane="8.0.00_0" slope="0.00"/>
        <vehicle id="11" x="396.39" y="52.17" angle="359.89" type="DEFAULT_VEHTYPE" speed="13.92" pos="42.10" lane="-8.0.00_0" slope="0.00"/>
        <vehicle id="12" x="41.82" y="326.64" angle="89.98" type="DEFAULT_VEHTYPE" speed="11.77" pos="30.73" lane="3.0.00_0" slope="0.00"/>
        <vehicle id="13" x="92.47" y="46.50" angle="359.99" type="DEFAULT_VEHTYPE" speed="9.65" pos="35.19" lane="24.0.00_0" slope="0.00"/>
        <vehicle id="14" x="37.53" y="-1.95" angle="90.03" type="DEFAULT_VEHTYPE" speed="8.59" pos="27.31" lane="-5.0.00_0" slope="0.00"/>
        <vehicle id="15" x="309.15" y="133.45" angle="270.01" type="DEFAULT_VEHTYPE" speed="5.58" pos="16.58" lane="12.0.00_0" slope="0.00"/>
        <vehicle id="16" x="92.44" y="294.38" angle="359.98" type="DEFAULT_VEHTYPE" speed="4.29" pos="11.92" lane="21.0.00_0" slope="0.00"/>
        <vehicle id="17" x="338.77" y="18.41" angle="0.03" type="DEFAULT_VEHTYPE" speed="2.15" pos="7.25" lane="19.0.00_0" slope="0.00"/>
        <vehicle id="2" x="334.89" y="212.17" angle="180.03" type="DEFAULT_VEHTYPE" speed="13.72" pos="47.41" lane="-17.0.00_0" slope="0.00"/>
        <vehicle id="3" x="88.46" y="143.84" angle="179.99" type="DEFAULT_VEHTYPE" speed="14.97" pos="42.93" lane="-23.0.00_0" slope="0.00"/>
        <vehicle id="4" x="326.39" y="2.09" angle="254.14" type="DEFAULT_VEHTYPE" speed="8.35" pos="14.01" lane=":60_0_0" slope="0.00"/>
        <vehicle id="5" x="88.44" y="274.98" angle="180.00" type="DEFAULT_VEHTYPE" speed="10.92" pos="7.48" lane=":184_0_0" slope="0.00"/>
        <vehicle id="6" x="392.36" y="185.76" angle="180.00" type="DEFAULT_VEHTYPE" speed="14.05" pos="133.00" lane="8.0.00_0" slope="0.00"/>
        <vehicle id="7" x="92.44" y="244.29" angle="359.99" type="DEFAULT_VEHTYPE" speed="11.45" pos="35.52" lane="22.0.00_0" slope="0.00"/>
        <vehicle id="8" x="199.88" y="195.15" angle="90.03" type="DEFAULT_VEHTYPE" speed="12.09" pos="98.41" lane="-4.0.00_0" slope="0.00"/>
        <vehicle id="9" x="5.87" y="3.16" angle="282.79" type="DEFAULT_VEHTYPE" speed="11.47" pos="4.24" lane="-20.0.00_0" slope="0.00"/>
    </timestep>
    <timestep time="19.00">
        <vehicle id="0" x="334.91" y="241.21" angle="180.03" type="DEFAULT_VEHTYPE" speed="10.57" pos="18.37" lane="-17.0.00_0" slope="0.00"/>
        <vehicle id="1" x="138.90" y="326.66" angle="90.00" type="DEFAULT_VEHTYPE" speed="11.53" pos="36.14" lane="2.0.00_0" slope="0.00"/>
        <vehicle id="10" x="392.35" y="225.80" angle="180.00" type="DEFAULT_VEHTYPE" speed="14.35" pos="92.96" lane="8.0.00_0" slope="0.00"/>
        <vehicle id="11" x="396.39" y="65.61" angle="0.00" type="DEFAULT_VEHTYPE" speed="13.45" pos="55.54" lane="-8.0.00_0" slope="0.00"/>
        <vehicle id="12" x="55.80" y="326.64" angle="89.98" type="DEFAULT_VEHTYPE" speed="13.98" pos="44.71" lane="3.0.00_0" slope="0.00"/>
        <vehicle id="13" x="92.47" y="57.55" angle="359.99" type="DEFAULT_VEHTYPE" speed="11.06" pos="46.24" lane="24.0.00_0" slope="0.00"/>
        <vehicle id="14" x="47.83" y="-1.95" angle="90.03" type="DEFAULT_VEHTYPE" speed="10.31" pos="37.61" lane="-5.0.00_0" slope="0.00"/>
        <vehicle id="15" x="301.98" y="133.45" angle="270.01" type="DEFAULT_VEHTYPE" speed="7.17" pos="23.75" lane="12.0.00_0" slope="0.00"/>
        <vehicle id="16" x="92.43" y="300.44" angle="359.98" type="DEFAULT_VEHTYPE" speed="6.06" pos="17.98" lane="21.0.00_0" slope="0.00"/>
        <vehicle id="17" x="338.78" y="22.95" angle="0.03" type="DEFAULT_VEHTYPE" speed="4.53" pos="11.79" lane="19.0.00_0" slope="0.00"/>
        <vehicle id="18" x="5.14" y="3.63" angle="288.52" type="DEFAULT_VEHTYPE" speed="0.00" pos="5.10" lane="-20.0.00_0" slope="0.00"/>
        <vehicle id="19" x="320.63" y="133.45" angle="270.01" type="DEFAULT_VEHTYPE" speed="0.00" pos="5.10" lane="12.0.00_0" slope="0.00"/>
        <vehicle id="2" x="334.88" y="198.56" angle="180.05" type="DEFAULT_VEHTYPE" speed="13.60" pos="9.47" lane=":139_1_0" slope="0.00"/>