<?xml version="1.0" encoding="UTF-8"?>

<!-- generated on Wed Aug 14 12:02:48 2019 by Eclipse SUMO Version 1.2.0
<configuration xmlns:xsi="http://www.w3.org/2001/XMLSchema-instance" xsi:noNamespaceSchemaLocation="http://sumo.dlr.de/xsd/sumoConfiguration.xsd">

    <input>
        <net-file value="Town01.net.xml"/>
        <route-files value="trips.trips.xml"/>
    </input>

    <output>
        <netstate-dump value="test.log"/>
        <fcd-output value="Town02_Car100_2.log"/>
    </output>

    <time>
        <begin value="0"/>
        <end value="10000"/>
    </time>

</configuration>
-->

<fcd-export xmlns:xsi="http://www.w3.org/2001/XMLSchema-instance" xsi:noNamespaceSchemaLocation="http://sumo.dlr.de/xsd/fcd_file.xsd">
    <timestep time="0.00">
        <vehicle id="0" x="106.55" y="269.11" angle="89.99" type="DEFAULT_VEHTYPE" speed="0.00" pos="5.10" lane="-9.0.00_0" slope="0.00"/>
    </timestep>
    <timestep time="1.00">
        <vehicle id="0" x="108.10" y="269.11" angle="89.99" type="DEFAULT_VEHTYPE" speed="1.55" pos="6.65" lane="-9.0.00_0" slope="0.00"/>
        <vehicle id="1" x="353.39" y="326.61" angle="90.03" type="DEFAULT_VEHTYPE" speed="0.00" pos="5.10" lane="0.0.00_0" slope="0.00"/>
    </timestep>
    <timestep time="2.00">
        <vehicle id="0" x="111.29" y="269.11" angle="89.99" type="DEFAULT_VEHTYPE" speed="3.19" pos="9.84" lane="-9.0.00_0" slope="0.00"/>
        <vehicle id="1" x="355.14" y="326.61" angle="90.03" type="DEFAULT_VEHTYPE" speed="1.75" pos="6.85" lane="0.0.00_0" slope="0.00"/>
        <vehicle id="2" x="107.85" y="326.66" angle="90.00" type="DEFAULT_VEHTYPE" speed="0.00" pos="5.10" lane="2.0.00_0" slope="0.00"/>
    </timestep>
    <timestep time="3.00">
        <vehicle id="0" x="116.36" y="269.11" angle="89.99" type="DEFAULT_VEHTYPE" speed="5.06" pos="14.91" lane="-9.0.00_0" slope="0.00"/>
        <vehicle id="1" x="359.11" y="326.60" angle="90.03" type="DEFAULT_VEHTYPE" speed="3.97" pos="10.82" lane="0.0.00_0" slope="0.00"/>
        <vehicle id="2" x="109.84" y="326.66" angle="90.00" type="DEFAULT_VEHTYPE" speed="1.99" pos="7.09" lane="2.0.00_0" slope="0.00"/>
        <vehicle id="3" x="74.37" y="2.03" angle="270.03" type="DEFAULT_VEHTYPE" speed="0.00" pos="5.10" lane="5.0.00_0" slope="0.00"/>
    </timestep>
    <timestep time="4.00">
        <vehicle id="0" x="122.93" y="269.11" angle="89.99" type="DEFAULT_VEHTYPE" speed="6.58" pos="21.48" lane="-9.0.00_0" slope="0.00"/>
        <vehicle id="1" x="364.76" y="326.60" angle="90.03" type="DEFAULT_VEHTYPE" speed="5.65" pos="16.47" lane="0.0.00_0" slope="0.00"/>
        <vehicle id="2" x="113.32" y="326.66" angle="90.00" type="DEFAULT_VEHTYPE" speed="3.48" pos="10.57" lane="2.0.00_0" slope="0.00"/>
        <vehicle id="3" x="73.01" y="2.03" angle="270.03" type="DEFAULT_VEHTYPE" speed="1.36" pos="6.46" lane="5.0.00_0" slope="0.00"/>
    </timestep>
    <timestep time="5.00">
        <vehicle id="0" x="131.56" y="269.12" angle="89.99" type="DEFAULT_VEHTYPE" speed="8.62" pos="30.11" lane="-9.0.00_0" slope="0.00"/>
        <vehicle id="1" x="372.47" y="326.60" angle="90.03" type="DEFAULT_VEHTYPE" speed="7.71" pos="24.18" lane="0.0.00_0" slope="0.00"/>
        <vehicle id="2" x="118.81" y="326.66" angle="90.00" type="DEFAULT_VEHTYPE" speed="5.49" pos="16.06" lane="2.0.00_0" slope="0.00"/>
        <vehicle id="3" x="70.15" y="2.04" angle="270.03" type="DEFAULT_VEHTYPE" speed="2.86" pos="9.32" lane="5.0.00_0" slope="0.00"/>
        <vehicle id="5" x="392.43" y="313.66" angle="180.07" type="DEFAULT_VEHTYPE" speed="0.00" pos="5.10" lane="8.0.00_0" slope="0.00"/>
    </timestep>
    <timestep time="6.00">
        <vehicle id="0" x="142.30" y="269.12" angle="89.99" type="DEFAULT_VEHTYPE" speed="10.74" pos="40.85" lane="-9.0.00_0" slope="0.00"/>
        <vehicle id="1" x="381.97" y="326.59" angle="90.03" type="DEFAULT_VEHTYPE" speed="9.50" pos="33.68" lane="0.0.00_0" slope="0.00"/>
        <vehicle id="2" x="125.79" y="326.66" angle="90.00" type="DEFAULT_VEHTYPE" speed="6.97" pos="23.03" lane="2.0.00_0" slope="0.00"/>
        <vehicle id="3" x="65.83" y="2.04" angle="270.03" type="DEFAULT_VEHTYPE" speed="4.32" pos="13.64" lane="5.0.00_0" slope="0.00"/>
        <vehicle id="4" x="74.37" y="2.03" angle="270.03" type="DEFAULT_VEHTYPE" speed="0.00" pos="5.10" lane="5.0.00_0" slope="0.00"/>
        <vehicle id="5" x="392.43" y="311.25" angle="180.11" type="DEFAULT_VEHTYPE" speed="2.41" pos="7.51" lane="8.0.00_0" slope="0.00"/>
        <vehicle id="6" x="391.20" y="5.22" angle="194.33" type="DEFAULT_VEHTYPE" speed="0.00" pos="5.10" lane="-14.0.00_0" slope="0.00"/>
    </timestep>
    <timestep time="7.00">
        <vehicle id="0" x="154.43" y="269.12" angle="90.00" type="DEFAULT_VEHTYPE" speed="12.13" pos="9.38" lane=":167_4_0" slope="0.00"/>
        <vehicle id="1" x="390.08" y="324.91" angle="109.89" type="DEFAULT_VEHTYPE" speed="8.51" pos="3.53" lane="-11.0.00_0" slope="0.00"/>
        <vehicle id="2" x="134.16" y="326.66" angle="90.00" type="DEFAULT_VEHTYPE" speed="8.37" pos="31.41" lane="2.0.00_0" slope="0.00"/>
        <vehicle id="3" x="58.96" y="2.04" angle="270.03" type="DEFAULT_VEHTYPE" speed="6.87" pos="20.51" lane="5.0.00_0" slope="0.00"/>
        <vehicle id="4" x="73.55" y="2.03" angle="270.03" type="DEFAULT_VEHTYPE" speed="0.82" pos="5.92" lane="5.0.00_0" slope="0.00"/>
        <vehicle id="5" x="392.43" y="307.37" angle="180.00" type="DEFAULT_VEHTYPE" speed="3.87" pos="11.39" lane="8.0.00_0" slope="0.00"/>
        <vehicle id="6" x="390.33" y="4.17" angle="204.67" type="DEFAULT_VEHTYPE" speed="1.38" pos="6.48" lane="-14.0.00_0" slope="0.00"/>
        <vehicle id="7" x="139.92" y="330.66" angle="270.00" type="DEFAULT_VEHTYPE" speed="0.00" pos="5.10" lane="-2.0.00_0" slope="0.00"/>
    </timestep>
    <timestep time="8.00">
        <vehicle id="0" x="168.13" y="269.12" angle="90.00" type="DEFAULT_VEHTYPE" speed="13.70" pos="0.90" lane="-10.0.00_0" slope="0.00"/>
        <vehicle id="1" x="392.44" y="318.16" angle="169.87" type="DEFAULT_VEHTYPE" speed="7.51" pos="0.60" lane="8.0.00_0" slope="0.00"/>
        <vehicle id="2" x="144.39" y="326.66" angle="90.00" type="DEFAULT_VEHTYPE" speed="10.23" pos="41.64" lane="2.0.00_0" slope="0.00"/>
        <vehicle id="3" x="49.68" y="2.05" angle="270.03" type="DEFAULT_VEHTYPE" speed="9.29" pos="29.79" lane="5.0.00_0" slope="0.00"/>
        <vehicle id="4" x="70.24" y="2.04" angle="270.03" type="DEFAULT_VEHTYPE" speed="3.31" pos="9.23" lane="5.0.00_0" slope="0.00"/>
        <vehicle id="5" x="392.42" y="301.07" angle="180.06" type="DEFAULT_VEHTYPE" speed="6.30" pos="17.69" lane="8.0.00_0" slope="0.00"/>
        <vehicle id="6" x="388.05" y="2.73" angle="228.19" type="DEFAULT_VEHTYPE" speed="2.70" pos="9.18" lane="-14.0.00_0" slope="0.00"/>
        <vehicle id="7" x="137.93" y="330.66" angle="270.00" type="DEFAULT_VEHTYPE" speed="1.99" pos="7.09" lane="-2.0.00_0" slope="0.00"/>
    </timestep>
    <timestep time="9.00">
        <vehicle id="0" x="182.14" y="269.12" angle="89.99" type="DEFAULT_VEHTYPE" speed="14.00" pos="14.91" lane="-10.0.00_0" slope="0.00"/>
        <vehicle id="1" x="392.43" y="311.02" angle="180.11" type="DEFAULT_VEHTYPE" speed="7.13" pos="7.74" lane="8.0.00_0" slope="0.00"/>
        <vehicle id="2" x="156.88" y="326.65" angle="90.02" type="DEFAULT_VEHTYPE" speed="12.49" pos="11.86" lane=":26_5_0" slope="0.00"/>
        <vehicle id="3" x="37.96" y="2.05" angle="270.03" type="DEFAULT_VEHTYPE" speed="11.71" pos="41.51" lane="5.0.00_0" slope="0.00"/>
        <vehicle id="4" x="65.43" y="2.04" angle="270.03" type="DEFAULT_VEHTYPE" speed="4.81" pos="14.04" lane="5.0.00_0" slope="0.00"/>
        <vehicle id="5" x="392.41" y="292.65" angle="180.03" type="DEFAULT_VEHTYPE" speed="8.43" pos="26.11" lane="8.0.00_0" slope="0.00"/>
        <vehicle id="6" x="384.02" y="2.00" angle="257.37" type="DEFAULT_VEHTYPE" speed="4.14" pos="0.29" lane=":7.14_0_0" slope="0.00"/>
        <vehicle id="7" x="134.08" y="330.66" angle="270.00" type="DEFAULT_VEHTYPE" speed="3.84" pos="10.93" lane="-2.0.00_0" slope="0.00"/>
        <vehicle id="8" x="74.37" y="2.03" angle="270.03" type="DEFAULT_VEHTYPE" speed="0.00" pos="5.10" lane="5.0.00_0" slope="0.00"/>
        <vehicle id="9" x="391.10" y="323.72" angle="123.67" type="DEFAULT_VEHTYPE" speed="0.00" pos="5.10" lane="-11.0.00_0" slope="0.00"/>
    </timestep>
    <timestep time="10.00">
        <vehicle id="0" x="196.20" y="269.12" angle="89.99" type="DEFAULT_VEHTYPE" speed="14.06" pos="28.97" lane="-10.0.00_0" slope="0.00"/>
        <vehicle id="1" x="392.42" y="302.28" angle="180.11" type="DEFAULT_VEHTYPE" speed="8.74" pos="16.48" lane="8.0.00_0" slope="0.00"/>
        <vehicle id="10" x="106.55" y="269.11" angle="89.99" type="DEFAULT_VEHTYPE" speed="0.00" pos="5.10" lane="-9.0.00_0" slope="0.00"/>
        <vehicle id="2" x="170.35" y="326.65" angle="90.01" type="DEFAULT_VEHTYPE" speed="13.47" pos="2.21" lane="1.0.00_0" slope="0.00"/>
        <vehicle id="3" x="24.19" y="2.06" angle="270.03" type="DEFAULT_VEHTYPE" speed="13.77" pos="55.28" lane="5.0.00_0" slope="0.00"/>
        <vehicle id="4" x="58.44" y="2.04" angle="270.03" type="DEFAULT_VEHTYPE" speed="6.98" pos="21.03" lane="5.0.00_0" slope="0.00"/>
        <vehicle id="5" x="392.40" y="281.67" angle="180.00" type="DEFAULT_VEHTYPE" speed="10.98" pos="37.09" lane="8.0.00_0" slope="0.00"/>
        <vehicle id="6" x="377.67" y="2.00" angle="270.00" type="DEFAULT_VEHTYPE" speed="6.34" pos="6.31" lane="7.0.00_0" slope="0.00"/>
        <vehicle id="7" x="127.69" y="330.66" angle="270.00" type="DEFAULT_VEHTYPE" speed="6.39" pos="17.33" lane="-2.0.00_0" slope="0.00"/>
        <vehicle id="8" x="72.64" y="2.03" angle="270.03" type="DEFAULT_VEHTYPE" speed="1.73" pos="6.83" lane="5.0.00_0" slope="0.00"/>
        <vehicle id="9" x="391.84" y="322.39" angle="136.57" type="DEFAULT_VEHTYPE" speed="1.52" pos="6.62" lane="-11.0.00_0" slope="0.00"/>
    </timestep>
    <timestep time="11.00">
        <vehicle id="0" x="210.75" y="269.13" angle="89.99" type="DEFAULT_VEHTYPE" speed="14.55" pos="43.52" lane="-10.0.00_0" slope="0.00"/>
        <vehicle id="1" x="392.41" y="291.09" angle="180.01" type="DEFAULT_VEHTYPE" speed="11.19" pos="27.67" lane="8.0.00_0" slope="0.00"/>
        <vehicle id="10" x="108.78" y="269.11" angle="89.99" type="DEFAULT_VEHTYPE" speed="2.23" pos="7.33" lane="-9.0.00_0" slope="0.00"/>
        <vehicle id="11" x="106.58" y="195.20" angle="90.03" type="DEFAULT_VEHTYPE" speed="0.00" pos="5.10" lane="-4.0.00_0" slope="0.00"/>
        <vehicle id="2" x="184.03" y="326.65" angle="90.00" type="DEFAULT_VEHTYPE" speed="13.68" pos="15.89" lane="1.0.00_0" slope="0.00"/>
        <vehicle id="3" x="9.98" y="2.07" angle="270.03" type="DEFAULT_VEHTYPE" speed="14.21" pos="0.24" lane=":5.20_0_0" slope="0.00"/>
        <vehicle id="4" x="49.19" y="2.05" angle="270.03" type="DEFAULT_VEHTYPE" speed="9.26" pos="30.28" lane="5.0.00_0" slope="0.00"/>
        <vehicle id="5" x="392.38" y="271.13" angle="180.11" type="DEFAULT_VEHTYPE" speed="10.53" pos="47.63" lane="8.0.00_0" slope="0.00"/>
        <vehicle id="6" x="368.82" y="2.00" angle="270.00" type="DEFAULT_VEHTYPE" speed="8.85" pos="15.16" lane="7.0.00_0" slope="0.00"/>
        <vehicle id="7" x="119.88" y="330.66" angle="270.00" type="DEFAULT_VEHTYPE" speed="7.81" pos="25.13" lane="-2.0.00_0" slope="0.00"/>
        <vehicle id="8" x="68.83" y="2.04" angle="270.03" type="DEFAULT_VEHTYPE" speed="3.81" pos="10.64" lane="5.0.00_0" slope="0.00"/>
        <vehicle id="9" x="392.44" y="318.90" angle="164.84" type="DEFAULT_VEHTYPE" speed="3.58" pos="10.20" lane="-11.0.00_0" slope="0.00"/>
    </timestep>
    <timestep time="12.00">
        <vehicle id="0" x="224.66" y="269.13" angle="89.99" type="DEFAULT_VEHTYPE" speed="13.91" pos="57.43" lane="-10.0.00_0" slope="0.00"/>
        <vehicle id="1" x="392.39" y="280.16" angle="180.07" type="DEFAULT_VEHTYPE" speed="10.94" pos="38.60" lane="8.0.00_0" slope="0.00"/>
        <vehicle id="10" x="112.37" y="269.11" angle="89.99" type="DEFAULT_VEHTYPE" speed="3.59" pos="10.92" lane="-9.0.00_0" slope="0.00"/>
        <vehicle id="11" x="108.71" y="195.20" angle="90.03" type="DEFAULT_VEHTYPE" speed="2.13" pos="7.23" lane="-4.0.00_0" slope="0.00"/>
        <vehicle id="12" x="320.59" y="273.14" angle="269.99" type="DEFAULT_VEHTYPE" speed="0.00" pos="5.10" lane="10.0.00_0" slope="0.00"/>
        <vehicle id="2" x="197.94" y="326.65" angle="90.00" type="DEFAULT_VEHTYPE" speed="13.91" pos="29.80" lane="1.0.00_0" slope="0.00"/>
        <vehicle id="3" x="2.07" y="12.51" angle="354.09" type="DEFAULT_VEHTYPE" speed="14.93" pos="1.35" lane="15.0.00_0" slope="0.00"/>
        <vehicle id="4" x="38.50" y="2.05" angle="270.03" type="DEFAULT_VEHTYPE" speed="10.69" pos="40.97" lane="5.0.00_0" slope="0.00"/>
        <vehicle id="5" x="392.37" y="259.92" angle="180.08" type="DEFAULT_VEHTYPE" speed="11.22" pos="58.84" lane="8.0.00_0" slope="0.00"/>
        <vehicle id="6" x="357.85" y="2.00" angle="270.00" type="DEFAULT_VEHTYPE" speed="10.97" pos="26.13" lane="7.0.00_0" slope="0.00"/>
        <vehicle id="7" x="110.43" y="330.66" angle="270.00" type="DEFAULT_VEHTYPE" speed="9.45" pos="34.59" lane="-2.0.00_0" slope="0.00"/>
        <vehicle id="8" x="63.34" y="2.04" angle="270.03" type="DEFAULT_VEHTYPE" speed="5.49" pos="16.13" lane="5.0.00_0" slope="0.00"/>
        <vehicle id="9" x="392.43" y="313.47" angle="180.08" type="DEFAULT_VEHTYPE" speed="5.53" pos="5.29" lane="8.0.00_0" slope="0.00"/>
    </timestep>
    <timestep time="13.00">
        <vehicle id="0" x="238.60" y="269.13" angle="89.99" type="DEFAULT_VEHTYPE" speed="13.94" pos="71.37" lane="-10.0.00_0" slope="0.00"/>
        <vehicle id="1" x="392.38" y="269.58" angle="180.11" type="DEFAULT_VEHTYPE" speed="10.58" pos="49.18" lane="8.0.00_0" slope="0.00"/>
        <vehicle id="10" x="118.44" y="269.11" angle="89.99" type="DEFAULT_VEHTYPE" speed="6.07" pos="16.99" lane="-9.0.00_0" slope="0.00"/>
        <vehicle id="11" x="112.60" y="195.19" angle="90.03" type="DEFAULT_VEHTYPE" speed="3.89" pos="11.12" lane="-4.0.00_0" slope="0.00"/>
        <vehicle id="12" x="319.15" y="273.14" angle="269.99" type="DEFAULT_VEHTYPE" speed="1.44" pos="6.54" lane="10.0.00_0" slope="0.00"/>
        <vehicle id="13" x="16.19" y="326.63" angle="89.98" type="DEFAULT_VEHTYPE" speed="0.00" pos="5.10" lane="3.0.00_0" slope="0.00"/>
        <vehicle id="2" x="210.71" y="326.65" angle="90.00" type="DEFAULT_VEHTYPE" speed="12.77" pos="42.57" lane="1.0.00_0" slope="0.00"/>
        <vehicle id="3" x="2.07" y="26.38" angle="0.00" type="DEFAULT_VEHTYPE" speed="13.87" pos="15.22" lane="15.0.00_0" slope="0.00"/>
        <vehicle id="4" x="25.48" y="2.06" angle="270.03" type="DEFAULT_VEHTYPE" speed="13.02" pos="53.99" lane="5.0.00_0" slope="0.00"/>
        <vehicle id="5" x="392.36" y="248.99" angle="180.05" type="DEFAULT_VEHTYPE" speed="10.93" pos="69.77" lane="8.0.00_0" slope="0.00"/>
        <vehicle id="6" x="345.54" y="2.00" angle="270.00" type="DEFAULT_VEHTYPE" speed="12.31" pos="2.25" lane=":60_3_0" slope="0.00"/>
        <vehicle id="7" x="102.12" y="330.58" angle="269.07" type="DEFAULT_VEHTYPE" speed="8.31" pos="0.64" lane=":77_1_0" slope="0.00"/>
        <vehicle id="8" x="56.46" y="2.04" angle="270.03" type="DEFAULT_VEHTYPE" speed="6.88" pos="23.01" lane="5.0.00_0" slope="0.00"/>
        <vehicle id="9" x="392.42" y="305.46" angle="180.09" type="DEFAULT_VEHTYPE" speed="8.00" pos="13.30" lane="8.0.00_0" slope="0.00"/>
    </timestep>
    <timestep time="14.00">
        <vehicle id="0" x="252.62" y="269.13" angle="89.99" type="DEFAULT_VEHTYPE" speed="14.02" pos="85.39" lane="-10.0.00_0" slope="0.00"/>
        <vehicle id="1" x="392.37" y="258.92" angle="180.02" type="DEFAULT_VEHTYPE" speed="10.66" pos="59.84" lane="8.0.00_0" slope="0.00"/>
        <vehicle id="10" x="126.70" y="269.12" angle="89.99" type="DEFAULT_VEHTYPE" speed="8.25" pos="25.25" lane="-9.0.00_0" slope="0.00"/>
        <vehicle id="11" x="118.82" y="195.19" angle="90.03" type="DEFAULT_VEHTYPE" speed="6.22" pos="17.34" lane="-4.0.00_0" slope="0.00"/>
        <vehicle id="12" x="316.03" y="273.14" angle="269.99" type="DEFAULT_VEHTYPE" speed="3.12" pos="9.66" lane="10.0.00_0" slope="0.00"/>
        <vehicle id="13" x="17.57" y="326.63" angle="89.98" type="DEFAULT_VEHTYPE" speed="1.38" pos="6.48" lane="3.0.00_0" slope="0.00"/>
        <vehicle id="14" x="338.85" y="148.06" angle="0.03" type="DEFAULT_VEHTYPE" speed="0.00" pos="5.10" lane="18.0.00_0" slope="0.00"/>
        <vehicle id="2" x="223.57" y="326.65" angle="90.00" type="DEFAULT_VEHTYPE" speed="12.86" pos="55.43" lane="1.0.00_0" slope="0.00"/>
        <vehicle id="3" x="2.07" y="41.42" angle="0.00" type="DEFAULT_VEHTYPE" speed="15.04" pos="30.26" lane="15.0.00_0" slope="0.00"/>
        <vehicle id="4" x="12.16" y="2.07" angle="270.03" type="DEFAULT_VEHTYPE" speed="13.32" pos="67.31" lane="5.0.00_0" slope="0.00"/>
        <vehicle id="5" x="392.35" y="237.50" angle="180.00" type="DEFAULT_VEHTYPE" speed="11.49" pos="81.26" lane="8.0.00_0" slope="0.00"/>
        <vehicle id="6" x="332.27" y="2.00" angle="270.00" type="DEFAULT_VEHTYPE" speed="13.27" pos="15.52" lane=":60_3_0" slope="0.00"/>
        <vehicle id="7" x="97.14" y="329.94" angle="262.72" type="DEFAULT_VEHTYPE" speed="5.02" pos="5.66" lane=":77_1_0" slope="0.00"/>
        <vehicle id="8" x="47.67" y="2.05" angle="270.03" type="DEFAULT_VEHTYPE" speed="8.78" pos="31.80" lane="5.0.00_0" slope="0.00"/>
        <vehicle id="9" x="392.41" y="295.40" angle="180.11" type="DEFAULT_VEHTYPE" speed="10.06" pos="23.36" lane="8.0.00_0" slope="0.00"/>
    </timestep>
    <timestep time="15.00">
        <vehicle id="0" x="267.25" y="269.13" angle="89.99" type="DEFAULT_VEHTYPE" speed="14.62" pos="100.01" lane="-10.0.00_0" slope="0.00"/>
        <vehicle id="1" x="392.35" y="247.10" angle="180.11" type="DEFAULT_VEHTYPE" speed="11.83" pos="71.66" lane="8.0.00_0" slope="0.00"/>
        <vehicle id="10" x="137.37" y="269.12" angle="89.99" type="DEFAULT_VEHTYPE" speed="10.67" pos="35.92" lane="-9.0.00_0" slope="0.00"/>
        <vehicle id="11" x="127.62" y="195.19" angle="90.03" type="DEFAULT_VEHTYPE" speed="8.80" pos="26.14" lane="-4.0.00_0" slope="0.00"/>
        <vehicle id="12" x="310.38" y="273.14" angle="269.99" type="DEFAULT_VEHTYPE" speed="5.66" pos="15.31" lane="10.0.00_0" slope="0.00"/>
        <vehicle id="13" x="21.46" y="326.63" angle="89.98" type="DEFAULT_VEHTYPE" speed="3.90" pos="10.37" lane="3.0.00_0" slope="0.00"/>
        <vehicle id="14" x="338.85" y="150.18" angle="0.03" type="DEFAULT_VEHTYPE" speed="2.12" pos="7.22" lane="18.0.00_0" slope="0.00"/>
        <vehicle id="15" x="106.78" y="-1.98" angle="90.00" type="DEFAULT_VEHTYPE" speed="0.00" pos="5.10" lane="-6.0.00_0" slope="0.00"/>
        <vehicle id="2" x="236.54" y="326.65" angle="90.00" type="DEFAULT_VEHTYPE" speed="12.96" pos="68.39" lane="1.0.00_0" slope="0.00"/>
        <vehicle id="3" x="2.08" y="56.03" angle="0.00" type="DEFAULT_VEHTYPE" speed="14.61" pos="44.87" lane="15.0.00_0" slope="0.00"/>
        <vehicle id="4" x="2.20" y="9.12" angle="336.18" type="DEFAULT_VEHTYPE" speed="13.72" pos="11.45" lane="-20.0.00_0" slope="0.00"/>
        <vehicle id="5" x="392.35" y="227.06" angle="180.00" type="DEFAULT_VEHTYPE" speed="10.44" pos="91.70" lane="8.0.00_0" slope="0.00"/>
        <vehicle id="6" x="318.29" y="2.00" angle="270.00" type="DEFAULT_VEHTYPE" speed="13.99" pos="7.49" lane="6.0.00_0" slope="0.00"/>
        <vehicle id="7" x="91.46" y="326.66" angle="236.55" type="DEFAULT_VEHTYPE" speed="6.71" pos="3.50" lane=":77_6_0" slope="0.00"/>
        <vehicle id="8" x="36.49" y="2.05" angle="270.03" type="DEFAULT_VEHTYPE" speed="11.18" pos="42.98" lane="5.0.00_0" slope="0.00"/>
        <vehicle id="9" x="392.40" y="284.01" angle="180.00" type="DEFAULT_VEHTYPE" speed="11.39" pos="34.75" lane="8.0.00_0" slope="0.00"/>
    </timestep>
    <timestep time="16.00">
        <vehicle id="0" x="280.68" y="269.13" angle="89.99" type="DEFAULT_VEHTYPE" speed="13.44" pos="113.45" lane="-10.0.00_0" slope="0.00"/>
        <vehicle id="1" x="392.35" y="236.75" angle="180.00" type="DEFAULT_VEHTYPE" speed="10.34" pos="82.01" lane="8.0.00_0" slope="0.00"/>
        <vehicle id="10" x="150.06" y="269.12" angle="90.00" type="DEFAULT_VEHTYPE" speed="12.69" pos="5.01" lane=":167_4_0" slope="0.00"/>
        <vehicle id="11" x="138.24" y="195.18" angle="90.03" type="DEFAULT_VEHTYPE" speed="10.62" pos="36.76" lane="-4.0.00_0" slope="0.00"/>
        <vehicle id="12" x="302.76" y="273.14" angle="269.99" type="DEFAULT_VEHTYPE" speed="7.62" pos="22.93" lane="10.0.00_0" slope="0.00"/>
        <vehicle id="13" x="27.71" y="326.63" angle="89.98" type="DEFAULT_VEHTYPE" speed="6.25" pos="16.62" lane="3.0.00_0" slope="0.00"/>
        <vehicle id="14" x="338.86" y="154.73" angle="0.03" type="DEFAULT_VEHTYPE" speed="4.55" pos="11.77" lane="18.0.00_0" slope="0.00"/>
        <vehicle id="15" x="109.16" y="-1.98" angle="90.00" type="DEFAULT_VEHTYPE" speed="2.38" pos="7.48" lane="-6.0.00_0" slope="0.00"/>
        <vehicle id="16" x="74.34" y="330.65" angle="269.98" type="DEFAULT_VEHTYPE" speed="0.00" pos="5.10" lane="-3.0.00_0" slope="0.00"/>
        <vehicle id="2" x="249.34" y="326.64" angle="90.02" type="DEFAULT_VEHTYPE" speed="12.80" pos="81.19" lane="1.0.00_0" slope="0.00"/>
        <vehicle id="3" x="2.08" y="70.89" angle="0.00" type="DEFAULT_VEHTYPE" speed="14.86" pos="59.73" lane="15.0.00_0" slope="0.00"/>
        <vehicle id="4" x="2.07" y="22.98" angle="0.00" type="DEFAULT_VEHTYPE" speed="13.85" pos="11.82" lane="15.0.00_0" slope="0.00"/>
        <vehicle id="5" x="392.35" y="216.09" angle="180.00" type="DEFAULT_VEHTYPE" speed="10.97" pos="102.67" lane="8.0.00_0" slope="0.00"/>
        <vehicle id="6" x="304.70" y="2.00" angle="270.00" type="DEFAULT_VEHTYPE" speed="13.59" pos="21.08" lane="6.0.00_0" slope="0.00"/>
        <vehicle id="7" x="88.58" y="318.87" angle="190.69" type="DEFAULT_VEHTYPE" speed="8.50" pos="12.00" lane=":77_6_0" slope="0.00"/>
        <vehicle id="8" x="24.60" y="2.06" angle="270.03" type="DEFAULT_VEHTYPE" speed="11.89" pos="54.87" lane="5.0.00_0" slope="0.00"/>
        <vehicle id="9" x="392.39" y="273.35" angle="180.01" type="DEFAULT_VEHTYPE" speed="10.66" pos="45.41" lane="8.0.00_0" slope="0.00"/>
    </timestep>
    <timestep time="17.00">
        <vehicle id="0" x="294.93" y="269.14" angle="89.99" type="DEFAULT_VEHTYPE" speed="14.25" pos="127.69" lane="-10.0.00_0" slope="0.00"/>
        <vehicle id="1" x="392.35" y="225.23" angle="180.00" type="DEFAULT_VEHTYPE" speed="11.52" pos="93.53" lane="8.0.00_0" slope="0.00"/>
        <vehicle id="10" x="164.99" y="269.12" angle="90.00" type="DEFAULT_VEHTYPE" speed="14.93" pos="19.94" lane=":167_4_0" slope="0.00"/>
        <vehicle id="11" x="151.06" y="195.18" angle="90.03" type="DEFAULT_VEHTYPE" speed="12.82" pos="49.58" lane="-4.0.00_0" slope="0.00"/>
        <vehicle id="12" x="293.31" y="273.14" angle="269.99" type="DEFAULT_VEHTYPE" speed="9.45" pos="32.38" lane="10.0.00_0" slope="0.00"/>
        <vehicle id="13" x="36.17" y="326.64" angle="89.98" type="DEFAULT_VEHTYPE" speed="8.46" pos="25.08" lane="3.0.00_0" slope="0.00"/>
        <vehicle id="14" x="338.86" y="161.10" angle="0.03" type="DEFAULT_VEHTYPE" speed="6.38" pos="18.15" lane="18.0.00_0" slope="0.00"/>
        <vehicle id="15" x="113.42" y="-1.98" angle="90.00" type="DEFAULT_VEHTYPE" speed="4.27" pos="11.74" lane="-6.0.00_0" slope="0.00"/>
        <vehicle id="16" x="72.45" y="330.65" angle="269.98" type="DEFAULT_VEHTYPE" speed="1.89" pos="6.99" lane="-3.0.00_0" slope="0.00"/>
        <vehicle id="2" x="263.01" y="326.64" angle="90.00" type="DEFAULT_VEHTYPE" speed="13.67" pos="94.86" lane="1.0.00_0" slope="0.00"/>
        <vehicle id="3" x="2.08" y="85.37" angle="0.00" type="DEFAULT_VEHTYPE" speed="14.47" pos="74.21" lane="15.0.00_0" slope="0.00"/>
        <vehicle id="4" x="2.07" y="37.11" angle="0.00" type="DEFAULT_VEHTYPE" speed="14.13" pos="25.95" lane="15.0.00_0" slope="0.00"/>
        <vehicle id="5" x="392.35" y="205.34" angle="179.97" type="DEFAULT_VEHTYPE" speed="10.75" pos="113.42" lane="8.0.00_0" slope="0.00"/>
        <vehicle id="6" x="290.19" y="2.00" angle="270.00" type="DEFAULT_VEHTYPE" speed="14.50" pos="35.59" lane="6.0.00_0" slope="0.00"/>
        <vehicle id="7" x="88.43" y="310.32" angle="179.98" type="DEFAULT_VEHTYPE" speed="8.57" pos="7.62" lane="-21.0.00_0" slope="0.00"/>
        <vehicle id="8" x="12.62" y="2.07" angle="270.03" type="DEFAULT_VEHTYPE" speed="11.98" pos="66.85" lane="5.0.00_0" slope="0.00"/>
        <vehicle id="9" x="392.37" y="262.15" angle="180.11" type="DEFAULT_VEHTYPE" speed="11.20" pos="56.61" lane="8.0.00_0" slope="0.00"/>
    </timestep>
    <timestep time="18.00">
        <vehicle id="0" x="308.54" y="269.14" angle="89.99" type="DEFAULT_VEHTYPE" speed="13.61" pos="141.30" lane="-10.0.00_0" slope="0.00"/>
        <vehicle id="1" x="392.35" y="215.07" angle="180.00" type="DEFAULT_VEHTYPE" speed="10.16" pos="103.69" lane="8.0.00_0" slope="0.00"/>
        <vehicle id="10" x="179.15" y="269.12" angle="89.99" type="DEFAULT_VEHTYPE" speed="14.16" pos="11.92" lane="-10.0.00_0" slope="0.00"/>
        <vehicle id="11" x="164.38" y="195.17" angle="90.03" type="DEFAULT_VEHTYPE" speed="13.32" pos="62.90" lane="-4.0.00_0" slope="0.00"/>
        <vehicle id="12" x="281.31" y="273.13" angle="269.99" type="DEFAULT_VEHTYPE" speed="11.99" pos="44.38" lane="10.0.00_0" slope="0.00"/>
        <vehicle id="13" x="45.99" y="326.64" angle="89.98" type="DEFAULT_VEHTYPE" speed="9.82" pos="34.90" lane="3.0.00_0" slope="0.00"/>
        <vehicle id="14" x="338.86" y="169.59" angle="0.03" type="DEFAULT_VEHTYPE" speed="8.49" pos="26.64" lane="18.0.00_0" slope="0.00"/>
        <vehicle id="15" x="119.76" y="-1.98" angle="90.00" type="DEFAULT_VEHTYPE" speed="6.34" pos="18.08" lane="-6.0.00_0" slope="0.00"/>
        <vehicle id="16" x="68.22" y="330.65" angle="269.98" type="DEFAULT_VEHTYPE" speed="4.23" pos="11.22" lane="-3.0.00_0" slope="0.00"/>
        <vehicle id="18" x="338.77" y="16.26" angle="0.03" type="DEFAULT_VEHTYPE" speed="0.00" pos="5.10" lane="19.0.00_0" slope="0.00"/>
        <vehicle id="2" x="276.26" y="326.64" angle="90.00" type="DEFAULT_VEHTYPE" speed="13.26" pos="108.12" lane="1.0.00_0" slope="0.00"/>
        <vehicle id="3" x="2.07" y="99.28" angle="359.89" type="DEFAULT_VEHTYPE" speed="13.91" pos="88.12" lane="15.0.00_0" slope="0.00"/>
        <vehicle id="4" x="2.08" y="50.18" angle="0.11" type="DEFAULT_VEHTYPE" speed="13.07" pos="39.02" lane="15.0.00_0" slope="0.00"/>
        <vehicle id="5" x="392.36" y="195.08" angle="180.00" type="DEFAULT_VEHTYPE" speed="10.26" pos="123.68" lane="8.0.00_0" slope="0.00"/>
        <vehicle id="6" x="275.80" y="2.00" angle="270.00" type="DEFAULT_VEHTYPE" speed="14.39" pos="49.98" lane="6.0.00_0" slope="0.00"/>
        <vehicle id="7" x="88.44" y="299.39" angle="179.98" type="DEFAULT_VEHTYPE" speed="10.93" pos="18.55" lane="-21.0.00_0" slope="0.00"/>
        <vehicle id="9" x="392.36" y="250.65" angle="180.00" type="DEFAULT_VEHTYPE" speed="11.51" pos="68.11" lane="8.0.00_0" slope="0.00"/>
    </timestep>
    <timestep time="19.00">
        <vehicle id="0" x="318.33" y="269.14" angle="89.99" type="DEFAULT_VEHTYPE" speed="9.79" pos="151.09" lane="-10.0.00_0" slope="0.00"/>
        <vehicle id="1" x="392.36" y="204.65" angle="179.93" type="DEFAULT_VEHTYPE" speed="10.42" pos="114.11" lane="8.0.00_0" slope="0.00"/>
        <vehicle id="10" x="193.87" y="269.12" angle="89.99" type="DEFAULT_VEHTYPE" speed="14.72" pos="26.63" lane="-10.0.00_0" slope="0.00"/>
        <vehicle id="11" x="177.41" y="195.16" angle="90.03" type="DEFAULT_VEHTYPE" speed="13.03" pos="75.94" lane="-4.0.00_0" slope="0.00"/>
        <vehicle id="12" x="267.73" y="273.13" angle="269.99" type="DEFAULT_VEHTYPE" speed="13.58" pos="57.95" lane="10.0.00_0" slope="0.00"/>
        <vehicle id="13" x="58.15" y="326.64" angle="89.98" type="DEFAULT_VEHTYPE" speed="12.16" pos="47.06" lane="3.0.00_0" slope="0.00"/>
        <vehicle id="14" x="338.87" y="180.55" angle="0.03" type="DEFAULT_VEHTYPE" speed="10.96" pos="37.60" lane="18.0.00_0" slope="0.00"/>
        <vehicle id="15" x="127.60" y="-1.98" angle="90.00" type="DEFAULT_VEHTYPE" speed="7.84" pos="25.92" lane="-6.0.00_0" slope="0.00"/>
        <vehicle id="16" x="62.66" y="330.65" angle="269.98" type="DEFAULT_VEHTYPE" speed="5.56" pos="16.78" lane="-3.0.00_0" slope="0.00"/>
        <vehicle id="17" x="74.34" y="330.65" angle="269.98" type="DEFAULT_VEHTYPE" speed="0.00" pos="5.10" lane="-3.0.00_0" slope="0.00"/>
        <vehicle id="18" x="338.77" y="18.77" angle="0.03" type="DEFAULT_VEHTYPE" speed="2.51" pos="7.61" lane="19.0.00_0" slope="0.00"/>
        <vehicle id="19" x="107.85" y="326.66" angle="90.00" type="DEFAULT_VEHTYPE" speed="0.00" pos="5.10" lane="2.0.00_0" slope="0.00"/>
        <vehicle id="2" x="289.74" y="326.64" angle="90.00" type="DEFAULT_VEHTYPE" speed="13.48" pos="121.60" lane="1.0.00_0" slope="0.00"/>
        <vehicle id="3" x="2.07" y="113.70" angle="0.00" type="DEFAULT_VEHTYPE" speed="14.42" pos="102.54" lane="15.0.00_0" slope="0.00"/>
        <vehicle id="4" x="2.08" y="63.24" angle="0.00" type="DEFAULT_VEHTYPE" speed="13.06" pos="52.08" lane="15.0.00_0" slope="0.00"/>
        <vehicle id="5" x="392.36" y="184.35" angle="180.00" type="DEFAULT_VEHTYPE" speed="10.72" pos="134.41" lane="8.0.00_0" slope="0.00"/>
        <vehicle id="6" x="262.48" y="2.00" angle="270.00" type="DEFAULT_VEHTYPE" speed="13.32" pos="63.30" lane="6.0.00_0" slope="0.00"/>
        <vehicle id="7" x="88.44" y="288.33" angle="179.98" type="DEFAULT_VEHTYPE" speed="11.07" pos="29.62" lane="-21.0.00_0" slope="0.00"/>
        <vehicle id="9" x="392.35" y="239.50" angle="180.00" type="DEFAULT_VEHTYPE" speed="11.15" pos="79.26" lane="8.0.00_0" slope="0.00"/>
    </timestep>
    <timestep time="20.00">