<?xml version="1.0" encoding="UTF-8"?>

<!-- generated on Wed Aug 14 12:02:19 2019 by Eclipse SUMO Version 1.2.0
<configuration xmlns:xsi="http://www.w3.org/2001/XMLSchema-instance" xsi:noNamespaceSchemaLocation="http://sumo.dlr.de/xsd/sumoConfiguration.xsd">

    <input>
        <net-file value="Town01.net.xml"/>
        <route-files value="trips.trips.xml"/>
    </input>

    <output>
        <netstate-dump value="test.log"/>
        <fcd-output value="Town02_Car50.log"/>
    </output>

    <time>
        <begin value="0"/>
        <end value="10000"/>
    </time>

</configuration>
-->

<fcd-export xmlns:xsi="http://www.w3.org/2001/XMLSchema-instance" xsi:noNamespaceSchemaLocation="http://sumo.dlr.de/xsd/fcd_file.xsd">
    <timestep time="0.00">
        <vehicle id="0" x="3.17" y="323.51" angle="13.52" type="DEFAULT_VEHTYPE" speed="0.00" pos="5.10" lane="-13.0.00_0" slope="0.00"/>
    </timestep>
    <timestep time="1.00">
        <vehicle id="0" x="4.51" y="324.95" angle="29.45" type="DEFAULT_VEHTYPE" speed="1.98" pos="7.08" lane="-13.0.00_0" slope="0.00"/>
        <vehicle id="1" x="172.33" y="269.12" angle="89.99" type="DEFAULT_VEHTYPE" speed="0.00" pos="5.10" lane="-10.0.00_0" slope="0.00"/>
    </timestep>
    <timestep time="2.00">
        <vehicle id="0" x="8.32" y="326.55" angle="64.56" type="DEFAULT_VEHTYPE" speed="4.19" pos="11.27" lane="-13.0.00_0" slope="0.00"/>
        <vehicle id="1" x="174.21" y="269.12" angle="89.99" type="DEFAULT_VEHTYPE" speed="1.88" pos="6.98" lane="-10.0.00_0" slope="0.00"/>
        <vehicle id="2" x="338.89" y="213.13" angle="0.03" type="DEFAULT_VEHTYPE" speed="0.00" pos="5.10" lane="17.0.00_0" slope="0.00"/>
    </timestep>
    <timestep time="3.00">
        <vehicle id="0" x="13.74" y="326.63" angle="89.65" type="DEFAULT_VEHTYPE" speed="5.52" pos="2.65" lane="3.0.00_0" slope="0.00"/>
        <vehicle id="1" x="178.03" y="269.12" angle="89.99" type="DEFAULT_VEHTYPE" speed="3.82" pos="10.80" lane="-10.0.00_0" slope="0.00"/>
        <vehicle id="2" x="338.89" y="215.62" angle="0.03" type="DEFAULT_VEHTYPE" speed="2.49" pos="7.59" lane="17.0.00_0" slope="0.00"/>
        <vehicle id="3" x="15.32" y="-1.93" angle="90.03" type="DEFAULT_VEHTYPE" speed="0.00" pos="5.10" lane="-5.0.00_0" slope="0.00"/>
    </timestep>
    <timestep time="4.00">
        <vehicle id="0" x="20.64" y="326.63" angle="89.98" type="DEFAULT_VEHTYPE" speed="6.90" pos="9.55" lane="3.0.00_0" slope="0.00"/>
        <vehicle id="1" x="184.28" y="269.12" angle="89.99" type="DEFAULT_VEHTYPE" speed="6.25" pos="17.05" lane="-10.0.00_0" slope="0.00"/>
        <vehicle id="2" x="338.90" y="219.98" angle="0.03" type="DEFAULT_VEHTYPE" speed="4.36" pos="11.95" lane="17.0.00_0" slope="0.00"/>
        <vehicle id="3" x="17.53" y="-1.93" angle="90.03" type="DEFAULT_VEHTYPE" speed="2.21" pos="7.31" lane="-5.0.00_0" slope="0.00"/>
        <vehicle id="4" x="338.85" y="148.06" angle="0.03" type="DEFAULT_VEHTYPE" speed="0.00" pos="5.10" lane="18.0.00_0" slope="0.00"/>
    </timestep>
    <timestep time="5.00">
        <vehicle id="0" x="30.05" y="326.64" angle="89.98" type="DEFAULT_VEHTYPE" speed="9.42" pos="18.96" lane="3.0.00_0" slope="0.00"/>
        <vehicle id="1" x="192.32" y="269.12" angle="89.99" type="DEFAULT_VEHTYPE" speed="8.04" pos="25.09" lane="-10.0.00_0" slope="0.00"/>
        <vehicle id="2" x="338.90" y="226.88" angle="0.03" type="DEFAULT_VEHTYPE" speed="6.90" pos="18.85" lane="17.0.00_0" slope="0.00"/>
        <vehicle id="3" x="22.03" y="-1.94" angle="90.03" type="DEFAULT_VEHTYPE" speed="4.51" pos="11.81" lane="-5.0.00_0" slope="0.00"/>
        <vehicle id="4" x="338.85" y="150.18" angle="0.03" type="DEFAULT_VEHTYPE" speed="2.12" pos="7.22" lane="18.0.00_0" slope="0.00"/>
        <vehicle id="5" x="107.85" y="326.66" angle="90.00" type="DEFAULT_VEHTYPE" speed="0.00" pos="5.10" lane="2.0.00_0" slope="0.00"/>
    </timestep>
    <timestep time="6.00">
        <vehicle id="0" x="41.82" y="326.64" angle="89.98" type="DEFAULT_VEHTYPE" speed="11.77" pos="30.73" lane="3.0.00_0" slope="0.00"/>
        <vehicle id="1" x="202.17" y="269.12" angle="89.99" type="DEFAULT_VEHTYPE" speed="9.85" pos="34.93" lane="-10.0.00_0" slope="0.00"/>
        <vehicle id="2" x="338.91" y="236.00" angle="0.03" type="DEFAULT_VEHTYPE" speed="9.12" pos="27.97" lane="17.0.00_0" slope="0.00"/>
        <vehicle id="3" x="28.94" y="-1.94" angle="90.03" type="DEFAULT_VEHTYPE" speed="6.90" pos="18.72" lane="-5.0.00_0" slope="0.00"/>
        <vehicle id="4" x="338.86" y="154.73" angle="0.03" type="DEFAULT_VEHTYPE" speed="4.55" pos="11.77" lane="18.0.00_0" slope="0.00"/>
        <vehicle id="5" x="109.84" y="326.66" angle="90.00" type="DEFAULT_VEHTYPE" speed="1.99" pos="7.09" lane="2.0.00_0" slope="0.00"/>
        <vehicle id="6" x="353.39" y="326.61" angle="90.03" type="DEFAULT_VEHTYPE" speed="0.00" pos="5.10" lane="0.0.00_0" slope="0.00"/>
    </timestep>
    <timestep time="7.00">
        <vehicle id="0" x="55.80" y="326.64" angle="89.98" type="DEFAULT_VEHTYPE" speed="13.98" pos="44.71" lane="3.0.00_0" slope="0.00"/>
        <vehicle id="1" x="213.91" y="269.13" angle="89.99" type="DEFAULT_VEHTYPE" speed="11.74" pos="46.68" lane="-10.0.00_0" slope="0.00"/>
        <vehicle id="2" x="338.91" y="247.56" angle="0.03" type="DEFAULT_VEHTYPE" speed="11.55" pos="39.53" lane="17.0.00_0" slope="0.00"/>
        <vehicle id="3" x="37.53" y="-1.95" angle="90.03" type="DEFAULT_VEHTYPE" speed="8.59" pos="27.31" lane="-5.0.00_0" slope="0.00"/>
        <vehicle id="4" x="338.86" y="161.10" angle="0.03" type="DEFAULT_VEHTYPE" speed="6.38" pos="18.15" lane="18.0.00_0" slope="0.00"/>
        <vehicle id="5" x="113.32" y="326.66" angle="90.00" type="DEFAULT_VEHTYPE" speed="3.48" pos="10.57" lane="2.0.00_0" slope="0.00"/>
        <vehicle id="6" x="355.14" y="326.61" angle="90.03" type="DEFAULT_VEHTYPE" speed="1.75" pos="6.85" lane="0.0.00_0" slope="0.00"/>
        <vehicle id="7" x="352.89" y="-2.00" angle="90.00" type="DEFAULT_VEHTYPE" speed="0.00" pos="5.10" lane="-7.0.00_0" slope="0.00"/>
    </timestep>
    <timestep time="8.00">
        <vehicle id="0" x="68.64" y="326.65" angle="89.98" type="DEFAULT_VEHTYPE" speed="12.84" pos="57.55" lane="3.0.00_0" slope="0.00"/>
        <vehicle id="1" x="226.85" y="269.13" angle="89.99" type="DEFAULT_VEHTYPE" speed="12.93" pos="59.61" lane="-10.0.00_0" slope="0.00"/>
        <vehicle id="2" x="338.92" y="261.23" angle="0.03" type="DEFAULT_VEHTYPE" speed="13.68" pos="1.65" lane=":111_2_0" slope="0.00"/>
        <vehicle id="3" x="47.83" y="-1.95" angle="90.03" type="DEFAULT_VEHTYPE" speed="10.31" pos="37.61" lane="-5.0.00_0" slope="0.00"/>
        <vehicle id="4" x="338.86" y="169.59" angle="0.03" type="DEFAULT_VEHTYPE" speed="8.49" pos="26.64" lane="18.0.00_0" slope="0.00"/>
        <vehicle id="5" x="118.81" y="326.66" angle="90.00" type="DEFAULT_VEHTYPE" speed="5.49" pos="16.06" lane="2.0.00_0" slope="0.00"/>
        <vehicle id="6" x="359.11" y="326.60" angle="90.03" type="DEFAULT_VEHTYPE" speed="3.97" pos="10.82" lane="0.0.00_0" slope="0.00"/>
        <vehicle id="7" x="354.87" y="-2.00" angle="90.00" type="DEFAULT_VEHTYPE" speed="1.98" pos="7.08" lane="-7.0.00_0" slope="0.00"/>
        <vehicle id="8" x="334.83" y="114.35" angle="180.03" type="DEFAULT_VEHTYPE" speed="0.00" pos="5.10" lane="-19.0.00_0" slope="0.00"/>
    </timestep>
    <timestep time="9.00">
        <vehicle id="0" x="79.17" y="326.65" angle="89.98" type="DEFAULT_VEHTYPE" speed="10.54" pos="68.08" lane="3.0.00_0" slope="0.00"/>
        <vehicle id="1" x="238.59" y="269.13" angle="89.99" type="DEFAULT_VEHTYPE" speed="11.75" pos="71.36" lane="-10.0.00_0" slope="0.00"/>
        <vehicle id="2" x="338.93" y="274.69" angle="0.03" type="DEFAULT_VEHTYPE" speed="13.46" pos="15.12" lane=":111_2_0" slope="0.00"/>
        <vehicle id="3" x="59.88" y="-1.96" angle="90.03" type="DEFAULT_VEHTYPE" speed="12.05" pos="49.66" lane="-5.0.00_0" slope="0.00"/>
        <vehicle id="4" x="338.87" y="180.55" angle="0.03" type="DEFAULT_VEHTYPE" speed="10.96" pos="37.60" lane="18.0.00_0" slope="0.00"/>
        <vehicle id="5" x="125.79" y="326.66" angle="90.00" type="DEFAULT_VEHTYPE" speed="6.97" pos="23.03" lane="2.0.00_0" slope="0.00"/>
        <vehicle id="6" x="364.76" y="326.60" angle="90.03" type="DEFAULT_VEHTYPE" speed="5.65" pos="16.47" lane="0.0.00_0" slope="0.00"/>
        <vehicle id="7" x="358.54" y="-2.00" angle="90.00" type="DEFAULT_VEHTYPE" speed="3.67" pos="10.75" lane="-7.0.00_0" slope="0.00"/>
        <vehicle id="8" x="334.83" y="112.97" angle="180.03" type="DEFAULT_VEHTYPE" speed="1.38" pos="6.48" lane="-19.0.00_0" slope="0.00"/>
        <vehicle id="9" x="139.95" y="273.12" angle="269.99" type="DEFAULT_VEHTYPE" speed="0.00" pos="5.10" lane="9.0.00_0" slope="0.00"/>
    </timestep>
    <timestep time="10.00">
        <vehicle id="0" x="86.28" y="324.32" angle="114.24" type="DEFAULT_VEHTYPE" speed="7.68" pos="7.41" lane=":77_4_0" slope="0.00"/>
        <vehicle id="1" x="251.15" y="269.13" angle="89.99" type="DEFAULT_VEHTYPE" speed="12.56" pos="83.92" lane="-10.0.00_0" slope="0.00"/>
        <vehicle id="10" x="320.63" y="133.45" angle="270.01" type="DEFAULT_VEHTYPE" speed="0.00" pos="5.10" lane="12.0.00_0" slope="0.00"/>
        <vehicle id="2" x="338.93" y="288.08" angle="0.03" type="DEFAULT_VEHTYPE" speed="13.39" pos="5.89" lane="16.0.00_0" slope="0.00"/>
        <vehicle id="3" x="72.89" y="-1.97" angle="90.03" type="DEFAULT_VEHTYPE" speed="13.01" pos="62.67" lane="-5.0.00_0" slope="0.00"/>
        <vehicle id="4" x="338.31" y="189.14" angle="353.61" type="DEFAULT_VEHTYPE" speed="8.63" pos="4.24" lane=":139_3_0" slope="0.00"/>
        <vehicle id="5" x="134.16" y="326.66" angle="90.00" type="DEFAULT_VEHTYPE" speed="8.37" pos="31.41" lane="2.0.00_0" slope="0.00"/>
        <vehicle id="6" x="372.47" y="326.60" angle="90.03" type="DEFAULT_VEHTYPE" speed="7.71" pos="24.18" lane="0.0.00_0" slope="0.00"/>
        <vehicle id="7" x="363.53" y="-2.00" angle="90.00" type="DEFAULT_VEHTYPE" speed="5.00" pos="15.74" lane="-7.0.00_0" slope="0.00"/>
        <vehicle id="8" x="334.82" y="109.90" angle="180.03" type="DEFAULT_VEHTYPE" speed="3.07" pos="9.55" lane="-19.0.00_0" slope="0.00"/>
        <vehicle id="9" x="137.43" y="273.12" angle="269.99" type="DEFAULT_VEHTYPE" speed="2.52" pos="7.62" lane="9.0.00_0" slope="0.00"/>
    </timestep>
    <timestep time="11.00">
        <vehicle id="0" x="88.43" y="317.29" angle="170.47" type="DEFAULT_VEHTYPE" speed="7.53" pos="0.65" lane="-21.0.00_0" slope="0.00"/>
        <vehicle id="1" x="263.38" y="269.13" angle="89.99" type="DEFAULT_VEHTYPE" speed="12.23" pos="96.14" lane="-10.0.00_0" slope="0.00"/>
        <vehicle id="10" x="318.88" y="133.45" angle="270.01" type="DEFAULT_VEHTYPE" speed="1.75" pos="6.85" lane="12.0.00_0" slope="0.00"/>
        <vehicle id="11" x="6.04" y="330.15" angle="264.42" type="DEFAULT_VEHTYPE" speed="0.00" pos="5.10" lane="13.0.00_0" slope="0.00"/>
        <vehicle id="2" x="338.94" y="301.53" angle="0.03" type="DEFAULT_VEHTYPE" speed="13.45" pos="19.34" lane="16.0.00_0" slope="0.00"/>
        <vehicle id="3" x="81.44" y="-1.68" angle="86.71" type="DEFAULT_VEHTYPE" speed="8.57" pos="1.99" lane=":195_5_0" slope="0.00"/>
        <vehicle id="4" x="333.99" y="196.58" angle="320.18" type="DEFAULT_VEHTYPE" speed="8.97" pos="4.55" lane=":139_6_0" slope="0.00"/>
        <vehicle id="5" x="144.39" y="326.66" angle="90.00" type="DEFAULT_VEHTYPE" speed="10.23" pos="41.64" lane="2.0.00_0" slope="0.00"/>
        <vehicle id="6" x="381.97" y="326.59" angle="90.03" type="DEFAULT_VEHTYPE" speed="9.50" pos="33.68" lane="0.0.00_0" slope="0.00"/>
        <vehicle id="7" x="371.04" y="-2.00" angle="90.00" type="DEFAULT_VEHTYPE" speed="7.51" pos="23.25" lane="-7.0.00_0" slope="0.00"/>
        <vehicle id="8" x="334.82" y="105.11" angle="180.03" type="DEFAULT_VEHTYPE" speed="4.79" pos="14.34" lane="-19.0.00_0" slope="0.00"/>
        <vehicle id="9" x="133.28" y="273.12" angle="269.99" type="DEFAULT_VEHTYPE" speed="4.15" pos="11.77" lane="9.0.00_0" slope="0.00"/>
    </timestep>
    <timestep time="12.00">
        <vehicle id="0" x="88.43" y="307.40" angle="179.98" type="DEFAULT_VEHTYPE" speed="9.89" pos="10.54" lane="-21.0.00_0" slope="0.00"/>
        <vehicle id="1" x="276.02" y="269.13" angle="89.99" type="DEFAULT_VEHTYPE" speed="12.64" pos="108.79" lane="-10.0.00_0" slope="0.00"/>
        <vehicle id="10" x="315.22" y="133.45" angle="270.01" type="DEFAULT_VEHTYPE" speed="3.66" pos="10.51" lane="12.0.00_0" slope="0.00"/>
        <vehicle id="11" x="3.87" y="329.28" angle="254.58" type="DEFAULT_VEHTYPE" speed="2.34" pos="7.44" lane="13.0.00_0" slope="0.00"/>
        <vehicle id="12" x="334.87" y="179.84" angle="180.03" type="DEFAULT_VEHTYPE" speed="0.00" pos="5.10" lane="-18.0.00_0" slope="0.00"/>
        <vehicle id="2" x="338.95" y="310.66" angle="0.03" type="DEFAULT_VEHTYPE" speed="9.13" pos="28.47" lane="16.0.00_0" slope="0.00"/>
        <vehicle id="3" x="86.35" y="-0.41" angle="75.30" type="DEFAULT_VEHTYPE" speed="5.15" pos="7.14" lane=":195_5_0" slope="0.00"/>
        <vehicle id="4" x="325.26" y="199.09" angle="277.93" type="DEFAULT_VEHTYPE" speed="9.28" pos="0.44" lane="4.0.00_0" slope="0.00"/>
        <vehicle id="5" x="155.59" y="326.66" angle="90.02" type="DEFAULT_VEHTYPE" speed="11.20" pos="10.58" lane=":26_5_0" slope="0.00"/>
        <vehicle id="7" x="380.62" y="-2.00" angle="90.00" type="DEFAULT_VEHTYPE" speed="9.58" pos="32.83" lane="-7.0.00_0" slope="0.00"/>
        <vehicle id="8" x="334.82" y="98.44" angle="180.03" type="DEFAULT_VEHTYPE" speed="6.67" pos="21.01" lane="-19.0.00_0" slope="0.00"/>
        <vehicle id="9" x="126.60" y="273.12" angle="269.99" type="DEFAULT_VEHTYPE" speed="6.68" pos="18.45" lane="9.0.00_0" slope="0.00"/>
    </timestep>
    <timestep time="13.00">
        <vehicle id="0" x="88.44" y="296.15" angle="179.98" type="DEFAULT_VEHTYPE" speed="11.25" pos="21.79" lane="-21.0.00_0" slope="0.00"/>
        <vehicle id="1" x="288.63" y="269.14" angle="89.99" type="DEFAULT_VEHTYPE" speed="12.60" pos="121.39" lane="-10.0.00_0" slope="0.00"/>
        <vehicle id="10" x="309.48" y="133.45" angle="270.01" type="DEFAULT_VEHTYPE" speed="5.75" pos="16.25" lane="12.0.00_0" slope="0.00"/>
        <vehicle id="11" x="0.85" y="327.05" angle="236.64" type="DEFAULT_VEHTYPE" speed="3.78" pos="11.22" lane="13.0.00_0" slope="0.00"/>
        <vehicle id="12" x="334.87" y="178.13" angle="180.03" type="DEFAULT_VEHTYPE" speed="1.71" pos="6.81" lane="-18.0.00_0" slope="0.00"/>
        <vehicle id="13" x="338.93" y="287.29" angle="0.03" type="DEFAULT_VEHTYPE" speed="0.00" pos="5.10" lane="16.0.00_0" slope="0.00"/>
        <vehicle id="2" x="338.95" y="316.17" angle="0.03" type="DEFAULT_VEHTYPE" speed="5.52" pos="33.98" lane="16.0.00_0" slope="0.00"/>
        <vehicle id="3" x="91.25" y="4.78" angle="36.10" type="DEFAULT_VEHTYPE" speed="7.36" pos="6.51" lane=":195_6_0" slope="0.00"/>
        <vehicle id="4" x="313.67" y="199.10" angle="270.03" type="DEFAULT_VEHTYPE" speed="11.60" pos="12.03" lane="4.0.00_0" slope="0.00"/>
        <vehicle id="5" x="166.08" y="326.65" angle="90.02" type="DEFAULT_VEHTYPE" speed="10.49" pos="21.07" lane=":26_5_0" slope="0.00"/>
        <vehicle id="7" x="391.33" y="-0.07" angle="69.06" type="DEFAULT_VEHTYPE" speed="11.09" pos="7.40" lane="14.0.00_0" slope="0.00"/>
        <vehicle id="8" x="334.81" y="90.35" angle="180.03" type="DEFAULT_VEHTYPE" speed="8.09" pos="29.10" lane="-19.0.00_0" slope="0.00"/>
        <vehicle id="9" x="118.31" y="273.11" angle="269.99" type="DEFAULT_VEHTYPE" speed="8.29" pos="26.74" lane="9.0.00_0" slope="0.00"/>
    </timestep>
    <timestep time="14.00">
        <vehicle id="0" x="88.44" y="283.29" angle="179.98" type="DEFAULT_VEHTYPE" speed="12.87" pos="34.66" lane="-21.0.00_0" slope="0.00"/>
        <vehicle id="1" x="301.08" y="269.14" angle="89.99" type="DEFAULT_VEHTYPE" speed="12.46" pos="133.84" lane="-10.0.00_0" slope="0.00"/>
        <vehicle id="10" x="302.15" y="133.45" angle="270.01" type="DEFAULT_VEHTYPE" speed="7.33" pos="23.58" lane="12.0.00_0" slope="0.00"/>
        <vehicle id="11" x="-1.80" y="321.53" angle="202.58" type="DEFAULT_VEHTYPE" speed="6.23" pos="17.45" lane="13.0.00_0" slope="0.00"/>
        <vehicle id="12" x="334.86" y="173.89" angle="180.03" type="DEFAULT_VEHTYPE" speed="4.24" pos="11.05" lane="-18.0.00_0" slope="0.00"/>
        <vehicle id="13" x="338.93" y="288.98" angle="0.03" type="DEFAULT_VEHTYPE" speed="1.69" pos="6.79" lane="16.0.00_0" slope="0.00"/>
        <vehicle id="14" x="320.68" y="2.00" angle="270.00" type="DEFAULT_VEHTYPE" speed="0.00" pos="5.10" lane="6.0.00_0" slope="0.00"/>
        <vehicle id="2" x="337.74" y="324.04" angle="348.30" type="DEFAULT_VEHTYPE" speed="8.03" pos="6.40" lane=":43_3_0" slope="0.00"/>
        <vehicle id="3" x="92.48" y="14.55" angle="2.79" type="DEFAULT_VEHTYPE" speed="9.94" pos="3.24" lane="24.0.00_0" slope="0.00"/>
        <vehicle id="4" x="299.61" y="199.10" angle="270.03" type="DEFAULT_VEHTYPE" speed="14.06" pos="26.09" lane="4.0.00_0" slope="0.00"/>
        <vehicle id="5" x="176.67" y="326.65" angle="90.00" type="DEFAULT_VEHTYPE" speed="10.59" pos="8.53" lane="1.0.00_0" slope="0.00"/>
        <vehicle id="7" x="396.41" y="10.30" angle="7.49" type="DEFAULT_VEHTYPE" speed="12.27" pos="0.23" lane="-8.0.00_0" slope="0.00"/>
        <vehicle id="8" x="334.81" y="80.16" angle="180.03" type="DEFAULT_VEHTYPE" speed="10.19" pos="39.29" lane="-19.0.00_0" slope="0.00"/>
        <vehicle id="9" x="108.94" y="273.11" angle="269.99" type="DEFAULT_VEHTYPE" speed="9.37" pos="36.11" lane="9.0.00_0" slope="0.00"/>
    </timestep>
    <timestep time="15.00">
        <vehicle id="0" x="88.44" y="269.44" angle="180.00" type="DEFAULT_VEHTYPE" speed="13.85" pos="13.02" lane=":184_0_0" slope="0.00"/>
        <vehicle id="1" x="313.65" y="269.14" angle="89.99" type="DEFAULT_VEHTYPE" speed="12.57" pos="146.41" lane="-10.0.00_0" slope="0.00"/>
        <vehicle id="10" x="293.22" y="133.45" angle="270.01" type="DEFAULT_VEHTYPE" speed="8.92" pos="32.51" lane="12.0.00_0" slope="0.00"/>
        <vehicle id="11" x="-1.97" y="313.54" angle="180.00" type="DEFAULT_VEHTYPE" speed="8.09" pos="5.11" lane="-15.0.00_0" slope="0.00"/>
        <vehicle id="12" x="334.86" y="167.63" angle="180.03" type="DEFAULT_VEHTYPE" speed="6.26" pos="17.31" lane="-18.0.00_0" slope="0.00"/>
        <vehicle id="13" x="338.94" y="293.01" angle="0.03" type="DEFAULT_VEHTYPE" speed="4.03" pos="10.82" lane="16.0.00_0" slope="0.00"/>
        <vehicle id="14" x="318.32" y="2.00" angle="270.00" type="DEFAULT_VEHTYPE" speed="2.36" pos="7.46" lane="6.0.00_0" slope="0.00"/>
        <vehicle id="15" x="106.78" y="-1.98" angle="90.00" type="DEFAULT_VEHTYPE" speed="0.00" pos="5.10" lane="-6.0.00_0" slope="0.00"/>
        <vehicle id="2" x="331.35" y="329.84" angle="299.74" type="DEFAULT_VEHTYPE" speed="8.92" pos="15.31" lane=":43_3_0" slope="0.00"/>
        <vehicle id="3" x="92.48" y="26.44" angle="359.99" type="DEFAULT_VEHTYPE" speed="11.90" pos="15.13" lane="24.0.00_0" slope="0.00"/>
        <vehicle id="4" x="286.17" y="199.11" angle="270.03" type="DEFAULT_VEHTYPE" speed="13.44" pos="39.53" lane="4.0.00_0" slope="0.00"/>
        <vehicle id="5" x="187.86" y="326.65" angle="90.00" type="DEFAULT_VEHTYPE" speed="11.19" pos="19.72" lane="1.0.00_0" slope="0.00"/>
        <vehicle id="7" x="396.41" y="21.33" angle="0.00" type="DEFAULT_VEHTYPE" speed="11.03" pos="11.26" lane="-8.0.00_0" slope="0.00"/>
        <vehicle id="8" x="334.80" y="67.47" angle="180.03" type="DEFAULT_VEHTYPE" speed="12.69" pos="51.98" lane="-19.0.00_0" slope="0.00"/>
        <vehicle id="9" x="103.73" y="273.11" angle="269.99" type="DEFAULT_VEHTYPE" speed="5.21" pos="41.32" lane="9.0.00_0" slope="0.00"/>
    </timestep>
    <timestep time="16.00">
        <vehicle id="0" x="88.44" y="254.85" angle="179.99" type="DEFAULT_VEHTYPE" speed="14.59" pos="5.61" lane="-22.0.00_0" slope="0.00"/>
        <vehicle id="1" x="321.72" y="269.14" angle="89.99" type="DEFAULT_VEHTYPE" speed="8.07" pos="154.48" lane="-10.0.00_0" slope="0.00"/>
        <vehicle id="10" x="282.21" y="133.45" angle="270.01" type="DEFAULT_VEHTYPE" speed="11.01" pos="43.52" lane="12.0.00_0" slope="0.00"/>
        <vehicle id="11" x="-1.98" y="302.89" angle="180.11" type="DEFAULT_VEHTYPE" speed="10.65" pos="15.76" lane="-15.0.00_0" slope="0.00"/>
        <vehicle id="12" x="334.86" y="160.07" angle="180.03" type="DEFAULT_VEHTYPE" speed="7.56" pos="24.87" lane="-18.0.00_0" slope="0.00"/>
        <vehicle id="13" x="338.94" y="298.76" angle="0.03" type="DEFAULT_VEHTYPE" speed="5.75" pos="16.57" lane="16.0.00_0" slope="0.00"/>
        <vehicle id="14" x="313.37" y="2.00" angle="270.00" type="DEFAULT_VEHTYPE" speed="4.94" pos="12.41" lane="6.0.00_0" slope="0.00"/>
        <vehicle id="15" x="109.16" y="-1.98" angle="90.00" type="DEFAULT_VEHTYPE" speed="2.38" pos="7.48" lane="-6.0.00_0" slope="0.00"/>
        <vehicle id="16" x="2.07" y="16.26" angle="0.00" type="DEFAULT_VEHTYPE" speed="0.00" pos="5.10" lane="15.0.00_0" slope="0.00"/>
        <vehicle id="2" x="322.78" y="330.62" angle="273.29" type="DEFAULT_VEHTYPE" speed="8.61" pos="2.91" lane="-1.0.00_0" slope="0.00"/>
        <vehicle id="3" x="92.47" y="40.82" angle="359.99" type="DEFAULT_VEHTYPE" speed="14.38" pos="29.51" lane="24.0.00_0" slope="0.00"/>
        <vehicle id="4" x="272.66" y="199.12" angle="270.03" type="DEFAULT_VEHTYPE" speed="13.50" pos="53.04" lane="4.0.00_0" slope="0.00"/>
        <vehicle id="5" x="199.28" y="326.65" angle="90.00" type="DEFAULT_VEHTYPE" speed="11.42" pos="31.14" lane="1.0.00_0" slope="0.00"/>
        <vehicle id="7" x="396.40" y="33.54" angle="0.00" type="DEFAULT_VEHTYPE" speed="12.21" pos="23.47" lane="-8.0.00_0" slope="0.00"/>
        <vehicle id="8" x="334.79" y="55.35" angle="180.03" type="DEFAULT_VEHTYPE" speed="12.12" pos="64.10" lane="-19.0.00_0" slope="0.00"/>
        <vehicle id="9" x="96.89" y="274.08" angle="281.29" type="DEFAULT_VEHTYPE" speed="6.99" pos="4.71" lane=":184_2_0" slope="0.00"/>
    </timestep>
    <timestep time="17.00">
        <vehicle id="0" x="88.44" y="240.31" angle="179.99" type="DEFAULT_VEHTYPE" speed="14.54" pos="20.15" lane="-22.0.00_0" slope="0.00"/>
        <vehicle id="1" x="328.96" y="268.65" angle="95.59" type="DEFAULT_VEHTYPE" speed="7.28" pos="3.31" lane=":111_4_0" slope="0.00"/>
        <vehicle id="10" x="269.46" y="133.46" angle="270.01" type="DEFAULT_VEHTYPE" speed="12.75" pos="56.27" lane="12.0.00_0" slope="0.00"/>
        <vehicle id="11" x="-1.98" y="289.72" angle="180.00" type="DEFAULT_VEHTYPE" speed="13.17" pos="28.93" lane="-15.0.00_0" slope="0.00"/>
        <vehicle id="12" x="334.85" y="150.92" angle="180.03" type="DEFAULT_VEHTYPE" speed="9.16" pos="34.03" lane="-18.0.00_0" slope="0.00"/>
        <vehicle id="13" x="338.94" y="306.14" angle="0.03" type="DEFAULT_VEHTYPE" speed="7.38" pos="23.95" lane="16.0.00_0" slope="0.00"/>
        <vehicle id="14" x="306.00" y="2.00" angle="270.00" type="DEFAULT_VEHTYPE" speed="7.37" pos="19.78" lane="6.0.00_0" slope="0.00"/>
        <vehicle id="15" x="113.42" y="-1.98" angle="90.00" type="DEFAULT_VEHTYPE" speed="4.27" pos="11.74" lane="-6.0.00_0" slope="0.00"/>
        <vehicle id="16" x="2.07" y="17.69" angle="0.00" type="DEFAULT_VEHTYPE" speed="1.43" pos="6.53" lane="15.0.00_0" slope="0.00"/>
        <vehicle id="17" x="392.43" y="313.66" angle="180.07" type="DEFAULT_VEHTYPE" speed="0.00" pos="5.10" lane="8.0.00_0" slope="0.00"/>
        <vehicle id="2" x="312.44" y="330.63" angle="270.00" type="DEFAULT_VEHTYPE" speed="10.34" pos="13.25" lane="-1.0.00_0" slope="0.00"/>
        <vehicle id="3" x="92.47" y="54.64" angle="359.99" type="DEFAULT_VEHTYPE" speed="13.82" pos="43.33" lane="24.0.00_0" slope="0.00"/>
        <vehicle id="4" x="259.27" y="199.12" angle="270.03" type="DEFAULT_VEHTYPE" speed="13.40" pos="66.43" lane="4.0.00_0" slope="0.00"/>
        <vehicle id="5" x="209.56" y="326.65" angle="90.00" type="DEFAULT_VEHTYPE" speed="10.28" pos="41.42" lane="1.0.00_0" slope="0.00"/>
        <vehicle id="7" x="396.40" y="45.51" angle="0.00" type="DEFAULT_VEHTYPE" speed="11.97" pos="35.44" lane="-8.0.00_0" slope="0.00"/>
        <vehicle id="8" x="334.79" y="43.60" angle="180.03" type="DEFAULT_VEHTYPE" speed="11.74" pos="75.85" lane="-19.0.00_0" slope="0.00"/>
        <vehicle id="9" x="93.07" y="278.26" angle="320.17" type="DEFAULT_VEHTYPE" speed="5.83" pos="10.54" lane=":184_2_0" slope="0.00"/>
    </timestep>
    <timestep time="18.00">
        <vehicle id="0" x="88.45" y="226.03" angle="179.99" type="DEFAULT_VEHTYPE" speed="14.28" pos="34.42" lane="-22.0.00_0" slope="0.00"/>
        <vehicle id="1" x="333.94" y="264.45" angle="136.84" type="DEFAULT_VEHTYPE" speed="6.83" pos="10.14" lane=":111_4_0" slope="0.00"/>
        <vehicle id="10" x="254.83" y="133.46" angle="270.01" type="DEFAULT_VEHTYPE" speed="14.64" pos="70.90" lane="12.0.00_0" slope="0.00"/>
        <vehicle id="11" x="-1.99" y="276.07" angle="180.11" type="DEFAULT_VEHTYPE" speed="13.65" pos="42.58" lane="-15.0.00_0" slope="0.00"/>
        <vehicle id="12" x="334.85" y="143.51" angle="180.03" type="DEFAULT_VEHTYPE" speed="7.40" pos="41.44" lane="-18.0.00_0" slope="0.00"/>
        <vehicle id="13" x="338.95" y="314.05" angle="0.03" type="DEFAULT_VEHTYPE" speed="7.91" pos="31.86" lane="16.0.00_0" slope="0.00"/>
        <vehicle id="14" x="296.16" y="2.00" angle="270.00" type="DEFAULT_VEHTYPE" speed="9.83" pos="29.62" lane="6.0.00_0" slope="0.00"/>
        <vehicle id="15" x="119.76" y="-1.98" angle="90.00" type="DEFAULT_VEHTYPE" speed="6.34" pos="18.08" lane="-6.0.00_0" slope="0.00"/>
        <vehicle id="16" x="2.07" y="21.73" angle="0.00" type="DEFAULT_VEHTYPE" speed="4.03" pos="10.57" lane="15.0.00_0" slope="0.00"/>
        <vehicle id="17" x="392.43" y="311.25" angle="180.11" type="DEFAULT_VEHTYPE" speed="2.41" pos="7.51" lane="8.0.00_0" slope="0.00"/>
        <vehicle id="18" x="334.87" y="179.84" angle="180.03" type="DEFAULT_VEHTYPE" speed="0.00" pos="5.10" lane="-18.0.00_0" slope="0.00"/>
        <vehicle id="2" x="300.60" y="330.63" angle="270.00" type="DEFAULT_VEHTYPE" speed="11.85" pos="25.09" lane="-1.0.00_0" slope="0.00"/>
        <vehicle id="3" x="92.47" y="69.46" angle="359.99" type="DEFAULT_VEHTYPE" speed="14.82" pos="58.16" lane="24.0.00_0" slope="0.00"/>
        <vehicle id="4" x="245.29" y="199.13" angle="270.03" type="DEFAULT_VEHTYPE" speed="13.98" pos="80.41" lane="4.0.00_0" slope="0.00"/>
        <vehicle id="5" x="219.92" y="326.65" angle="90.00" type="DEFAULT_VEHTYPE" speed="10.37" pos="51.78" lane="1.0.00_0" slope="0.00"/>
        <vehicle id="7" x="396.39" y="57.01" angle="0.00" type="DEFAULT_VEHTYPE" speed="11.50" pos="46.94" lane="-8.0.00_0" slope="0.00"/>
        <vehicle id="8" x="334.78" y="30.75" angle="180.03" type="DEFAULT_VEHTYPE" speed="12.86" pos="88.70" lane="-19.0.00_0" slope="0.00"/>
        <vehicle id="9" x="92.44" y="283.98" angle="354.57" type="DEFAULT_VEHTYPE" speed="5.78" pos="1.52" lane="21.0.00_0" slope="0.00"/>
    </timestep>
    <timestep time="19.00">
        <vehicle id="0" x="88.45" y="213.70" angle="179.99" type="DEFAULT_VEHTYPE" speed="12.33" pos="46.75" lane="-22.0.00_0" slope="0.00"/>
        <vehicle id="1" x="334.92" y="256.84" angle="176.45" type="DEFAULT_VEHTYPE" speed="7.76" pos="2.74" lane="-17.0.00_0" slope="0.00"/>
        <vehicle id="10" x="240.11" y="133.46" angle="270.01" type="DEFAULT_VEHTYPE" speed="14.71" pos="85.62" lane="12.0.00_0" slope="0.00"/>
        <vehicle id="11" x="-1.99" y="262.23" angle="180.00" type="DEFAULT_VEHTYPE" speed="13.84" pos="56.42" lane="-15.0.00_0" slope="0.00"/>
        <vehicle id="12" x="332.83" y="136.28" angle="200.67" type="DEFAULT_VEHTYPE" speed="7.65" pos="7.10" lane=":94_0_0" slope="0.00"/>
        <vehicle id="13" x="338.09" y="323.49" angle="351.33" type="DEFAULT_VEHTYPE" speed="9.51" pos="5.74" lane=":43_3_0" slope="0.00"/>
        <vehicle id="14" x="284.94" y="2.00" angle="270.00" type="DEFAULT_VEHTYPE" speed="11.23" pos="40.84" lane="6.0.00_0" slope="0.00"/>
        <vehicle id="15" x="127.60" y="-1.98" angle="90.00" type="DEFAULT_VEHTYPE" speed="7.84" pos="25.92" lane="-6.0.00_0" slope="0.00"/>
        <vehicle id="16" x="2.07" y="27.93" angle="0.00" type="DEFAULT_VEHTYPE" speed="6.21" pos="16.77" lane="15.0.00_0" slope="0.00"/>
        <vehicle id="17" x="392.43" y="307.37" angle="180.00" type="DEFAULT_VEHTYPE" speed="3.87" pos="11.39" lane="8.0.00_0" slope="0.00"/>
        <vehicle id="18" x="334.87" y="178.34" angle="180.03" type="DEFAULT_VEHTYPE" speed="1.50" pos="6.60" lane="-18.0.00_0" slope="0.00"/>
        <vehicle id="19" x="320.59" y="273.14" angle="269.99" type="DEFAULT_VEHTYPE" speed="0.00" pos="5.10" lane="10.0.00_0" slope="0.00"/>
        <vehicle id="2" x="286.57" y="330.64" angle="270.00" type="DEFAULT_VEHTYPE" speed="14.02" pos="39.12" lane="-1.0.00_0" slope="0.00"/>
        <vehicle id="3" x="92.47" y="83.34" angle="359.99" type="DEFAULT_VEHTYPE" speed="13.88" pos="72.04" lane="24.0.00_0" slope="0.00"/>
        <vehicle id="4" x="232.09" y="199.14" angle="270.03" type="DEFAULT_VEHTYPE" speed="13.19" pos="93.61" lane="4.0.00_0" slope="0.00"/>
        <vehicle id="5" x="230.40" y="326.65" angle="90.00" type="DEFAULT_VEHTYPE" speed="10.47" pos="62.25" lane="1.0.00_0" slope="0.00"/>
        <vehicle id="7" x="396.39" y="68.95" angle="0.00" type="DEFAULT_VEHTYPE" speed="11.95" pos="58.88" lane="-8.0.00_0" slope="0.00"/>
        <vehicle id="8" x="334.77" y="20.15" angle="180.03" type="DEFAULT_VEHTYPE" speed="10.60" pos="99.30" lane="-19.0.00_0" slope="0.00"/>
        <vehicle id="9" x="92.44" y="291.10" angle="359.98" type="DEFAULT_VEHTYPE" speed="7.12" pos="8.65" lane="21.0.00_0" slope="0.00"/>
    </timestep>
    <timestep time="20.00">