<?xml version="1.0" encoding="UTF-8"?>

<!-- generated on Wed Aug 14 12:04:09 2019 by Eclipse SUMO Version 1.2.0
<configuration xmlns:xsi="http://www.w3.org/2001/XMLSchema-instance" xsi:noNamespaceSchemaLocation="http://sumo.dlr.de/xsd/sumoConfiguration.xsd">

    <input>
        <net-file value="Town01.net.xml"/>
        <route-files value="trips.trips.xml"/>
    </input>

    <output>
        <netstate-dump value="test.log"/>
        <fcd-output value="Town02_Car150_3.log"/>
    </output>

    <time>
        <begin value="0"/>
        <end value="10000"/>
    </time>

</configuration>
-->

<fcd-export xmlns:xsi="http://www.w3.org/2001/XMLSchema-instance" xsi:noNamespaceSchemaLocation="http://sumo.dlr.de/xsd/fcd_file.xsd">
    <timestep time="0.00">
        <vehicle id="0" x="338.77" y="16.26" angle="0.03" type="DEFAULT_VEHTYPE" speed="0.00" pos="5.10" lane="19.0.00_0" slope="0.00"/>
    </timestep>
    <timestep time="1.00">
        <vehicle id="0" x="338.77" y="18.77" angle="0.03" type="DEFAULT_VEHTYPE" speed="2.51" pos="7.61" lane="19.0.00_0" slope="0.00"/>
        <vehicle id="1" x="334.92" y="254.48" angle="180.03" type="DEFAULT_VEHTYPE" speed="0.00" pos="5.10" lane="-17.0.00_0" slope="0.00"/>
    </timestep>
    <timestep time="2.00">
        <vehicle id="0" x="338.78" y="23.43" angle="0.03" type="DEFAULT_VEHTYPE" speed="4.66" pos="12.27" lane="19.0.00_0" slope="0.00"/>
        <vehicle id="1" x="334.92" y="253.16" angle="180.03" type="DEFAULT_VEHTYPE" speed="1.32" pos="6.42" lane="-17.0.00_0" slope="0.00"/>
        <vehicle id="2" x="172.33" y="269.12" angle="89.99" type="DEFAULT_VEHTYPE" speed="0.00" pos="5.10" lane="-10.0.00_0" slope="0.00"/>
    </timestep>
    <timestep time="3.00">
        <vehicle id="0" x="338.78" y="29.46" angle="0.03" type="DEFAULT_VEHTYPE" speed="6.04" pos="18.30" lane="19.0.00_0" slope="0.00"/>
        <vehicle id="1" x="334.91" y="249.96" angle="180.03" type="DEFAULT_VEHTYPE" speed="3.20" pos="9.62" lane="-17.0.00_0" slope="0.00"/>
        <vehicle id="2" x="174.21" y="269.12" angle="89.99" type="DEFAULT_VEHTYPE" speed="1.88" pos="6.98" lane="-10.0.00_0" slope="0.00"/>
        <vehicle id="3" x="338.77" y="16.26" angle="0.03" type="DEFAULT_VEHTYPE" speed="0.00" pos="5.10" lane="19.0.00_0" slope="0.00"/>
    </timestep>
    <timestep time="4.00">
        <vehicle id="0" x="338.78" y="37.88" angle="0.03" type="DEFAULT_VEHTYPE" speed="8.42" pos="26.72" lane="19.0.00_0" slope="0.00"/>
        <vehicle id="1" x="334.91" y="244.74" angle="180.03" type="DEFAULT_VEHTYPE" speed="5.22" pos="14.84" lane="-17.0.00_0" slope="0.00"/>
        <vehicle id="2" x="178.03" y="269.12" angle="89.99" type="DEFAULT_VEHTYPE" speed="3.82" pos="10.80" lane="-10.0.00_0" slope="0.00"/>
        <vehicle id="3" x="338.77" y="17.81" angle="0.03" type="DEFAULT_VEHTYPE" speed="1.55" pos="6.65" lane="19.0.00_0" slope="0.00"/>
        <vehicle id="4" x="320.68" y="2.00" angle="270.00" type="DEFAULT_VEHTYPE" speed="0.00" pos="5.10" lane="6.0.00_0" slope="0.00"/>
    </timestep>
    <timestep time="5.00">
        <vehicle id="0" x="338.79" y="48.10" angle="0.03" type="DEFAULT_VEHTYPE" speed="10.22" pos="36.94" lane="19.0.00_0" slope="0.00"/>
        <vehicle id="1" x="334.91" y="237.84" angle="180.03" type="DEFAULT_VEHTYPE" speed="6.90" pos="21.74" lane="-17.0.00_0" slope="0.00"/>
        <vehicle id="2" x="184.28" y="269.12" angle="89.99" type="DEFAULT_VEHTYPE" speed="6.25" pos="17.05" lane="-10.0.00_0" slope="0.00"/>
        <vehicle id="3" x="338.78" y="21.35" angle="0.03" type="DEFAULT_VEHTYPE" speed="3.54" pos="10.19" lane="19.0.00_0" slope="0.00"/>
        <vehicle id="4" x="319.01" y="2.00" angle="270.00" type="DEFAULT_VEHTYPE" speed="1.67" pos="6.77" lane="6.0.00_0" slope="0.00"/>
        <vehicle id="5" x="172.33" y="269.12" angle="89.99" type="DEFAULT_VEHTYPE" speed="0.00" pos="5.10" lane="-10.0.00_0" slope="0.00"/>
    </timestep>
    <timestep time="6.00">
        <vehicle id="0" x="338.80" y="60.20" angle="0.03" type="DEFAULT_VEHTYPE" speed="12.10" pos="49.04" lane="19.0.00_0" slope="0.00"/>
        <vehicle id="1" x="334.90" y="228.65" angle="180.03" type="DEFAULT_VEHTYPE" speed="9.19" pos="30.93" lane="-17.0.00_0" slope="0.00"/>
        <vehicle id="2" x="192.32" y="269.12" angle="89.99" type="DEFAULT_VEHTYPE" speed="8.04" pos="25.09" lane="-10.0.00_0" slope="0.00"/>
        <vehicle id="3" x="338.78" y="27.13" angle="0.03" type="DEFAULT_VEHTYPE" speed="5.78" pos="15.97" lane="19.0.00_0" slope="0.00"/>
        <vehicle id="4" x="314.98" y="2.00" angle="270.00" type="DEFAULT_VEHTYPE" speed="4.03" pos="10.80" lane="6.0.00_0" slope="0.00"/>
        <vehicle id="5" x="174.14" y="269.12" angle="89.99" type="DEFAULT_VEHTYPE" speed="1.81" pos="6.91" lane="-10.0.00_0" slope="0.00"/>
        <vehicle id="6" x="16.19" y="326.63" angle="89.98" type="DEFAULT_VEHTYPE" speed="0.00" pos="5.10" lane="3.0.00_0" slope="0.00"/>
    </timestep>
    <timestep time="7.00">
        <vehicle id="0" x="338.81" y="74.83" angle="0.03" type="DEFAULT_VEHTYPE" speed="14.63" pos="63.67" lane="19.0.00_0" slope="0.00"/>
        <vehicle id="1" x="334.90" y="217.29" angle="180.03" type="DEFAULT_VEHTYPE" speed="11.36" pos="42.29" lane="-17.0.00_0" slope="0.00"/>
        <vehicle id="2" x="202.25" y="269.12" angle="89.99" type="DEFAULT_VEHTYPE" speed="9.93" pos="35.02" lane="-10.0.00_0" slope="0.00"/>
        <vehicle id="3" x="338.78" y="35.42" angle="0.03" type="DEFAULT_VEHTYPE" speed="8.29" pos="24.26" lane="19.0.00_0" slope="0.00"/>
        <vehicle id="4" x="308.38" y="2.00" angle="270.00" type="DEFAULT_VEHTYPE" speed="6.61" pos="17.40" lane="6.0.00_0" slope="0.00"/>
        <vehicle id="5" x="178.46" y="269.12" angle="89.99" type="DEFAULT_VEHTYPE" speed="4.31" pos="11.23" lane="-10.0.00_0" slope="0.00"/>
        <vehicle id="6" x="17.57" y="326.63" angle="89.98" type="DEFAULT_VEHTYPE" speed="1.38" pos="6.48" lane="3.0.00_0" slope="0.00"/>
        <vehicle id="7" x="389.29" y="-1.11" angle="79.65" type="DEFAULT_VEHTYPE" speed="0.00" pos="5.10" lane="14.0.00_0" slope="0.00"/>
    </timestep>
    <timestep time="8.00">
        <vehicle id="0" x="338.81" y="88.63" angle="0.03" type="DEFAULT_VEHTYPE" speed="13.80" pos="77.47" lane="19.0.00_0" slope="0.00"/>
        <vehicle id="1" x="334.89" y="208.15" angle="180.03" type="DEFAULT_VEHTYPE" speed="9.14" pos="51.43" lane="-17.0.00_0" slope="0.00"/>
        <vehicle id="2" x="213.50" y="269.13" angle="89.99" type="DEFAULT_VEHTYPE" speed="11.25" pos="46.26" lane="-10.0.00_0" slope="0.00"/>
        <vehicle id="3" x="338.79" y="45.71" angle="0.03" type="DEFAULT_VEHTYPE" speed="10.29" pos="34.55" lane="19.0.00_0" slope="0.00"/>
        <vehicle id="4" x="299.34" y="2.00" angle="270.00" type="DEFAULT_VEHTYPE" speed="9.04" pos="26.44" lane="6.0.00_0" slope="0.00"/>
        <vehicle id="5" x="184.89" y="269.12" angle="89.99" type="DEFAULT_VEHTYPE" speed="6.44" pos="17.66" lane="-10.0.00_0" slope="0.00"/>
        <vehicle id="6" x="21.46" y="326.63" angle="89.98" type="DEFAULT_VEHTYPE" speed="3.90" pos="10.37" lane="3.0.00_0" slope="0.00"/>
        <vehicle id="7" x="391.11" y="-0.22" angle="70.28" type="DEFAULT_VEHTYPE" speed="2.03" pos="7.13" lane="14.0.00_0" slope="0.00"/>
        <vehicle id="8" x="139.92" y="330.66" angle="270.00" type="DEFAULT_VEHTYPE" speed="0.00" pos="5.10" lane="-2.0.00_0" slope="0.00"/>
    </timestep>
    <timestep time="9.00">
        <vehicle id="0" x="338.82" y="102.08" angle="0.03" type="DEFAULT_VEHTYPE" speed="13.45" pos="90.92" lane="19.0.00_0" slope="0.00"/>
        <vehicle id="1" x="332.88" y="201.80" angle="201.13" type="DEFAULT_VEHTYPE" speed="6.80" pos="6.68" lane=":139_0_0" slope="0.00"/>
        <vehicle id="2" x="226.54" y="269.13" angle="89.99" type="DEFAULT_VEHTYPE" speed="13.04" pos="59.31" lane="-10.0.00_0" slope="0.00"/>
        <vehicle id="3" x="338.80" y="57.95" angle="0.03" type="DEFAULT_VEHTYPE" speed="12.24" pos="46.79" lane="19.0.00_0" slope="0.00"/>
        <vehicle id="4" x="287.84" y="2.00" angle="270.00" type="DEFAULT_VEHTYPE" speed="11.50" pos="37.94" lane="6.0.00_0" slope="0.00"/>
        <vehicle id="5" x="193.54" y="269.12" angle="89.99" type="DEFAULT_VEHTYPE" speed="8.65" pos="26.31" lane="-10.0.00_0" slope="0.00"/>
        <vehicle id="6" x="27.71" y="326.63" angle="89.98" type="DEFAULT_VEHTYPE" speed="6.25" pos="16.62" lane="3.0.00_0" slope="0.00"/>
        <vehicle id="7" x="394.10" y="2.38" angle="51.76" type="DEFAULT_VEHTYPE" speed="3.98" pos="11.11" lane="14.0.00_0" slope="0.00"/>
        <vehicle id="8" x="137.93" y="330.66" angle="270.00" type="DEFAULT_VEHTYPE" speed="1.99" pos="7.09" lane="-2.0.00_0" slope="0.00"/>
        <vehicle id="9" x="334.92" y="254.48" angle="180.03" type="DEFAULT_VEHTYPE" speed="0.00" pos="5.10" lane="-17.0.00_0" slope="0.00"/>
    </timestep>
    <timestep time="10.00">
        <vehicle id="0" x="338.83" y="116.21" angle="0.03" type="DEFAULT_VEHTYPE" speed="14.13" pos="105.05" lane="19.0.00_0" slope="0.00"/>
        <vehicle id="1" x="326.35" y="199.18" angle="254.95" type="DEFAULT_VEHTYPE" speed="7.28" pos="13.96" lane=":139_0_0" slope="0.00"/>
        <vehicle id="10" x="173.24" y="326.65" angle="90.00" type="DEFAULT_VEHTYPE" speed="0.00" pos="5.10" lane="1.0.00_0" slope="0.00"/>
        <vehicle id="2" x="240.14" y="269.13" angle="89.99" type="DEFAULT_VEHTYPE" speed="13.60" pos="72.91" lane="-10.0.00_0" slope="0.00"/>
        <vehicle id="3" x="338.80" y="71.82" angle="0.03" type="DEFAULT_VEHTYPE" speed="13.86" pos="60.66" lane="19.0.00_0" slope="0.00"/>
        <vehicle id="4" x="274.94" y="2.00" angle="270.00" type="DEFAULT_VEHTYPE" speed="12.89" pos="50.84" lane="6.0.00_0" slope="0.00"/>
        <vehicle id="5" x="204.21" y="269.12" angle="89.99" type="DEFAULT_VEHTYPE" speed="10.67" pos="36.97" lane="-10.0.00_0" slope="0.00"/>
        <vehicle id="6" x="36.17" y="326.64" angle="89.98" type="DEFAULT_VEHTYPE" speed="8.46" pos="25.08" lane="3.0.00_0" slope="0.00"/>
        <vehicle id="7" x="396.36" y="8.40" angle="16.46" type="DEFAULT_VEHTYPE" speed="6.54" pos="17.66" lane="14.0.00_0" slope="0.00"/>
        <vehicle id="8" x="134.08" y="330.66" angle="270.00" type="DEFAULT_VEHTYPE" speed="3.84" pos="10.93" lane="-2.0.00_0" slope="0.00"/>
        <vehicle id="9" x="334.92" y="252.29" angle="180.03" type="DEFAULT_VEHTYPE" speed="2.19" pos="7.29" lane="-17.0.00_0" slope="0.00"/>
    </timestep>
    <timestep time="11.00">
        <vehicle id="0" x="338.84" y="130.67" angle="0.05" type="DEFAULT_VEHTYPE" speed="14.46" pos="11.22" lane=":94_2_0" slope="0.00"/>
        <vehicle id="1" x="319.27" y="199.09" angle="270.03" type="DEFAULT_VEHTYPE" speed="7.09" pos="6.43" lane="4.0.00_0" slope="0.00"/>
        <vehicle id="10" x="175.49" y="326.65" angle="90.00" type="DEFAULT_VEHTYPE" speed="2.25" pos="7.35" lane="1.0.00_0" slope="0.00"/>
        <vehicle id="2" x="254.08" y="269.13" angle="89.99" type="DEFAULT_VEHTYPE" speed="13.93" pos="86.84" lane="-10.0.00_0" slope="0.00"/>
        <vehicle id="3" x="338.81" y="86.22" angle="0.03" type="DEFAULT_VEHTYPE" speed="14.40" pos="75.06" lane="19.0.00_0" slope="0.00"/>
        <vehicle id="4" x="260.89" y="2.00" angle="270.00" type="DEFAULT_VEHTYPE" speed="14.05" pos="64.89" lane="6.0.00_0" slope="0.00"/>
        <vehicle id="5" x="214.79" y="269.13" angle="89.99" type="DEFAULT_VEHTYPE" speed="10.58" pos="47.56" lane="-10.0.00_0" slope="0.00"/>
        <vehicle id="6" x="45.99" y="326.64" angle="89.98" type="DEFAULT_VEHTYPE" speed="9.82" pos="34.90" lane="3.0.00_0" slope="0.00"/>
        <vehicle id="7" x="396.41" y="16.57" angle="0.00" type="DEFAULT_VEHTYPE" speed="8.27" pos="6.50" lane="-8.0.00_0" slope="0.00"/>
        <vehicle id="8" x="127.69" y="330.66" angle="270.00" type="DEFAULT_VEHTYPE" speed="6.39" pos="17.33" lane="-2.0.00_0" slope="0.00"/>
        <vehicle id="9" x="334.91" y="247.82" angle="180.03" type="DEFAULT_VEHTYPE" speed="4.48" pos="11.76" lane="-17.0.00_0" slope="0.00"/>
    </timestep>
    <timestep time="12.00">
        <vehicle id="0" x="338.85" y="144.88" angle="0.04" type="DEFAULT_VEHTYPE" speed="14.20" pos="1.92" lane="18.0.00_0" slope="0.00"/>
        <vehicle id="1" x="309.86" y="199.10" angle="270.03" type="DEFAULT_VEHTYPE" speed="9.41" pos="15.84" lane="4.0.00_0" slope="0.00"/>
        <vehicle id="10" x="180.21" y="326.65" angle="90.00" type="DEFAULT_VEHTYPE" speed="4.72" pos="12.07" lane="1.0.00_0" slope="0.00"/>
        <vehicle id="11" x="396.41" y="15.17" angle="0.00" type="DEFAULT_VEHTYPE" speed="0.00" pos="5.10" lane="-8.0.00_0" slope="0.00"/>
        <vehicle id="12" x="353.39" y="326.61" angle="90.03" type="DEFAULT_VEHTYPE" speed="0.00" pos="5.10" lane="0.0.00_0" slope="0.00"/>
        <vehicle id="2" x="267.59" y="269.13" angle="89.99" type="DEFAULT_VEHTYPE" speed="13.51" pos="100.35" lane="-10.0.00_0" slope="0.00"/>
        <vehicle id="3" x="338.82" y="100.03" angle="0.03" type="DEFAULT_VEHTYPE" speed="13.81" pos="88.87" lane="19.0.00_0" slope="0.00"/>
        <vehicle id="4" x="246.66" y="2.00" angle="270.00" type="DEFAULT_VEHTYPE" speed="14.23" pos="79.12" lane="6.0.00_0" slope="0.00"/>
        <vehicle id="5" x="225.05" y="269.13" angle="89.99" type="DEFAULT_VEHTYPE" speed="10.26" pos="57.82" lane="-10.0.00_0" slope="0.00"/>
        <vehicle id="6" x="58.15" y="326.64" angle="89.98" type="DEFAULT_VEHTYPE" speed="12.16" pos="47.06" lane="3.0.00_0" slope="0.00"/>
        <vehicle id="7" x="396.40" y="26.16" angle="359.89" type="DEFAULT_VEHTYPE" speed="9.59" pos="16.09" lane="-8.0.00_0" slope="0.00"/>
        <vehicle id="8" x="119.88" y="330.66" angle="270.00" type="DEFAULT_VEHTYPE" speed="7.81" pos="25.13" lane="-2.0.00_0" slope="0.00"/>
        <vehicle id="9" x="334.91" y="240.85" angle="180.03" type="DEFAULT_VEHTYPE" speed="6.97" pos="18.73" lane="-17.0.00_0" slope="0.00"/>
    </timestep>
    <timestep time="13.00">
        <vehicle id="0" x="338.86" y="159.12" angle="0.03" type="DEFAULT_VEHTYPE" speed="14.24" pos="16.16" lane="18.0.00_0" slope="0.00"/>
        <vehicle id="1" x="297.99" y="199.10" angle="270.03" type="DEFAULT_VEHTYPE" speed="11.87" pos="27.71" lane="4.0.00_0" slope="0.00"/>
        <vehicle id="10" x="186.27" y="326.65" angle="90.00" type="DEFAULT_VEHTYPE" speed="6.06" pos="18.13" lane="1.0.00_0" slope="0.00"/>
        <vehicle id="11" x="396.41" y="17.44" angle="0.00" type="DEFAULT_VEHTYPE" speed="2.27" pos="7.37" lane="-8.0.00_0" slope="0.00"/>
        <vehicle id="12" x="355.14" y="326.61" angle="90.03" type="DEFAULT_VEHTYPE" speed="1.75" pos="6.85" lane="0.0.00_0" slope="0.00"/>
        <vehicle id="13" x="338.77" y="16.26" angle="0.03" type="DEFAULT_VEHTYPE" speed="0.00" pos="5.10" lane="19.0.00_0" slope="0.00"/>
        <vehicle id="2" x="281.43" y="269.13" angle="89.99" type="DEFAULT_VEHTYPE" speed="13.84" pos="114.19" lane="-10.0.00_0" slope="0.00"/>
        <vehicle id="3" x="338.83" y="114.01" angle="0.03" type="DEFAULT_VEHTYPE" speed="13.98" pos="102.85" lane="19.0.00_0" slope="0.00"/>
        <vehicle id="4" x="232.89" y="2.01" angle="270.00" type="DEFAULT_VEHTYPE" speed="13.76" pos="92.89" lane="6.0.00_0" slope="0.00"/>
        <vehicle id="5" x="235.35" y="269.13" angle="89.99" type="DEFAULT_VEHTYPE" speed="10.30" pos="68.11" lane="-10.0.00_0" slope="0.00"/>
        <vehicle id="6" x="71.77" y="326.65" angle="89.98" type="DEFAULT_VEHTYPE" speed="13.63" pos="60.68" lane="3.0.00_0" slope="0.00"/>
        <vehicle id="7" x="396.40" y="38.25" angle="0.00" type="DEFAULT_VEHTYPE" speed="12.09" pos="28.18" lane="-8.0.00_0" slope="0.00"/>
        <vehicle id="8" x="110.43" y="330.66" angle="270.00" type="DEFAULT_VEHTYPE" speed="9.45" pos="34.59" lane="-2.0.00_0" slope="0.00"/>
        <vehicle id="9" x="334.90" y="231.31" angle="180.03" type="DEFAULT_VEHTYPE" speed="9.54" pos="28.27" lane="-17.0.00_0" slope="0.00"/>
    </timestep>
    <timestep time="14.00">
        <vehicle id="0" x="338.86" y="173.67" angle="0.03" type="DEFAULT_VEHTYPE" speed="14.55" pos="30.72" lane="18.0.00_0" slope="0.00"/>
        <vehicle id="1" x="285.83" y="199.11" angle="270.03" type="DEFAULT_VEHTYPE" speed="12.16" pos="39.87" lane="4.0.00_0" slope="0.00"/>
        <vehicle id="10" x="193.76" y="326.65" angle="90.00" type="DEFAULT_VEHTYPE" speed="7.48" pos="25.61" lane="1.0.00_0" slope="0.00"/>
        <vehicle id="11" x="396.41" y="21.94" angle="0.00" type="DEFAULT_VEHTYPE" speed="4.51" pos="11.87" lane="-8.0.00_0" slope="0.00"/>
        <vehicle id="12" x="359.11" y="326.60" angle="90.03" type="DEFAULT_VEHTYPE" speed="3.97" pos="10.82" lane="0.0.00_0" slope="0.00"/>
        <vehicle id="13" x="338.77" y="18.26" angle="0.03" type="DEFAULT_VEHTYPE" speed="2.00" pos="7.10" lane="19.0.00_0" slope="0.00"/>
        <vehicle id="14" x="389.29" y="-1.11" angle="79.65" type="DEFAULT_VEHTYPE" speed="0.00" pos="5.10" lane="14.0.00_0" slope="0.00"/>
        <vehicle id="2" x="294.26" y="269.14" angle="89.99" type="DEFAULT_VEHTYPE" speed="12.83" pos="127.02" lane="-10.0.00_0" slope="0.00"/>
        <vehicle id="3" x="338.84" y="128.31" angle="0.05" type="DEFAULT_VEHTYPE" speed="14.30" pos="8.86" lane=":94_2_0" slope="0.00"/>
        <vehicle id="4" x="218.87" y="2.01" angle="270.00" type="DEFAULT_VEHTYPE" speed="14.02" pos="106.91" lane="6.0.00_0" slope="0.00"/>
        <vehicle id="5" x="246.71" y="269.13" angle="89.99" type="DEFAULT_VEHTYPE" speed="11.36" pos="79.48" lane="-10.0.00_0" slope="0.00"/>
        <vehicle id="6" x="85.70" y="326.65" angle="89.98" type="DEFAULT_VEHTYPE" speed="13.93" pos="6.26" lane=":77_5_0" slope="0.00"/>
        <vehicle id="7" x="396.39" y="49.74" angle="359.89" type="DEFAULT_VEHTYPE" speed="11.50" pos="39.67" lane="-8.0.00_0" slope="0.00"/>
        <vehicle id="8" x="101.61" y="330.51" angle="268.33" type="DEFAULT_VEHTYPE" speed="8.82" pos="1.15" lane=":77_1_0" slope="0.00"/>
        <vehicle id="9" x="334.90" y="220.28" angle="180.03" type="DEFAULT_VEHTYPE" speed="11.03" pos="39.30" lane="-17.0.00_0" slope="0.00"/>
    </timestep>
    <timestep time="15.00">
        <vehicle id="0" x="338.87" y="184.00" angle="0.03" type="DEFAULT_VEHTYPE" speed="10.33" pos="41.05" lane="18.0.00_0" slope="0.00"/>
        <vehicle id="1" x="273.60" y="199.12" angle="270.03" type="DEFAULT_VEHTYPE" speed="12.23" pos="52.10" lane="4.0.00_0" slope="0.00"/>
        <vehicle id="10" x="202.77" y="326.65" angle="90.00" type="DEFAULT_VEHTYPE" speed="9.01" pos="34.63" lane="1.0.00_0" slope="0.00"/>
        <vehicle id="11" x="396.40" y="28.77" angle="359.99" type="DEFAULT_VEHTYPE" speed="6.82" pos="18.70" lane="-8.0.00_0" slope="0.00"/>
        <vehicle id="12" x="364.76" y="326.60" angle="90.03" type="DEFAULT_VEHTYPE" speed="5.65" pos="16.47" lane="0.0.00_0" slope="0.00"/>
        <vehicle id="13" x="338.78" y="21.61" angle="0.03" type="DEFAULT_VEHTYPE" speed="3.35" pos="10.45" lane="19.0.00_0" slope="0.00"/>
        <vehicle id="14" x="390.59" y="-0.52" angle="73.35" type="DEFAULT_VEHTYPE" speed="1.42" pos="6.52" lane="14.0.00_0" slope="0.00"/>
        <vehicle id="15" x="2.07" y="16.26" angle="0.00" type="DEFAULT_VEHTYPE" speed="0.00" pos="5.10" lane="15.0.00_0" slope="0.00"/>
        <vehicle id="2" x="307.93" y="269.14" angle="89.99" type="DEFAULT_VEHTYPE" speed="13.67" pos="140.69" lane="-10.0.00_0" slope="0.00"/>
        <vehicle id="3" x="338.85" y="143.33" angle="0.05" type="DEFAULT_VEHTYPE" speed="15.02" pos="0.37" lane="18.0.00_0" slope="0.00"/>
        <vehicle id="4" x="204.69" y="2.01" angle="270.00" type="DEFAULT_VEHTYPE" speed="14.18" pos="121.09" lane="6.0.00_0" slope="0.00"/>
        <vehicle id="5" x="258.00" y="269.13" angle="89.99" type="DEFAULT_VEHTYPE" speed="11.28" pos="90.76" lane="-10.0.00_0" slope="0.00"/>
        <vehicle id="6" x="99.84" y="326.66" angle="89.98" type="DEFAULT_VEHTYPE" speed="14.14" pos="20.40" lane=":77_5_0" slope="0.00"/>
        <vehicle id="7" x="396.39" y="62.04" angle="0.00" type="DEFAULT_VEHTYPE" speed="12.29" pos="51.97" lane="-8.0.00_0" slope="0.00"/>
        <vehicle id="8" x="96.83" y="329.90" angle="262.72" type="DEFAULT_VEHTYPE" speed="4.82" pos="5.97" lane=":77_1_0" slope="0.00"/>
        <vehicle id="9" x="334.89" y="209.59" angle="180.03" type="DEFAULT_VEHTYPE" speed="10.69" pos="49.99" lane="-17.0.00_0" slope="0.00"/>
    </timestep>
    <timestep time="16.00">
        <vehicle id="0" x="338.14" y="190.46" angle="352.45" type="DEFAULT_VEHTYPE" speed="6.50" pos="5.57" lane=":139_3_0" slope="0.00"/>
        <vehicle id="1" x="261.48" y="199.12" angle="270.03" type="DEFAULT_VEHTYPE" speed="12.12" pos="64.22" lane="4.0.00_0" slope="0.00"/>
        <vehicle id="10" x="213.15" y="326.65" angle="90.00" type="DEFAULT_VEHTYPE" speed="10.38" pos="45.00" lane="1.0.00_0" slope="0.00"/>
        <vehicle id="11" x="396.40" y="37.20" angle="0.00" type="DEFAULT_VEHTYPE" speed="8.44" pos="27.13" lane="-8.0.00_0" slope="0.00"/>
        <vehicle id="12" x="372.47" y="326.60" angle="90.03" type="DEFAULT_VEHTYPE" speed="7.71" pos="24.18" lane="0.0.00_0" slope="0.00"/>
        <vehicle id="13" x="338.78" y="27.34" angle="0.03" type="DEFAULT_VEHTYPE" speed="5.73" pos="16.18" lane="19.0.00_0" slope="0.00"/>
        <vehicle id="14" x="393.10" y="1.28" angle="58.60" type="DEFAULT_VEHTYPE" speed="3.10" pos="9.63" lane="14.0.00_0" slope="0.00"/>
        <vehicle id="15" x="2.07" y="17.69" angle="0.00" type="DEFAULT_VEHTYPE" speed="1.43" pos="6.53" lane="15.0.00_0" slope="0.00"/>
        <vehicle id="16" x="395.62" y="323.75" angle="350.47" type="DEFAULT_VEHTYPE" speed="0.00" pos="5.10" lane="11.0.00_0" slope="0.00"/>
        <vehicle id="2" x="318.00" y="269.14" angle="89.99" type="DEFAULT_VEHTYPE" speed="10.07" pos="150.76" lane="-10.0.00_0" slope="0.00"/>
        <vehicle id="3" x="338.86" y="158.24" angle="0.03" type="DEFAULT_VEHTYPE" speed="14.91" pos="15.28" lane="18.0.00_0" slope="0.00"/>
        <vehicle id="4" x="190.69" y="2.01" angle="270.00" type="DEFAULT_VEHTYPE" speed="14.01" pos="135.09" lane="6.0.00_0" slope="0.00"/>
        <vehicle id="5" x="269.46" y="269.13" angle="89.99" type="DEFAULT_VEHTYPE" speed="11.46" pos="102.22" lane="-10.0.00_0" slope="0.00"/>
        <vehicle id="6" x="114.28" y="326.66" angle="90.00" type="DEFAULT_VEHTYPE" speed="14.44" pos="11.53" lane="2.0.00_0" slope="0.00"/>
        <vehicle id="7" x="396.39" y="73.83" angle="359.98" type="DEFAULT_VEHTYPE" speed="11.80" pos="63.76" lane="-8.0.00_0" slope="0.00"/>
        <vehicle id="8" x="91.50" y="326.73" angle="236.99" type="DEFAULT_VEHTYPE" speed="6.33" pos="3.42" lane=":77_6_0" slope="0.00"/>
        <vehicle id="9" x="333.95" y="203.54" angle="190.93" type="DEFAULT_VEHTYPE" speed="6.19" pos="4.63" lane=":139_0_0" slope="0.00"/>
    </timestep>
    <timestep time="17.00">
        <vehicle id="0" x="337.40" y="192.29" angle="346.79" type="DEFAULT_VEHTYPE" speed="2.00" pos="7.57" lane=":139_3_0" slope="0.00"/>
        <vehicle id="1" x="248.78" y="199.13" angle="270.03" type="DEFAULT_VEHTYPE" speed="12.70" pos="76.92" lane="4.0.00_0" slope="0.00"/>
        <vehicle id="10" x="225.76" y="326.65" angle="90.00" type="DEFAULT_VEHTYPE" speed="12.61" pos="57.61" lane="1.0.00_0" slope="0.00"/>
        <vehicle id="11" x="396.40" y="47.44" angle="0.00" type="DEFAULT_VEHTYPE" speed="10.24" pos="37.37" lane="-8.0.00_0" slope="0.00"/>
        <vehicle id="12" x="381.97" y="326.59" angle="90.03" type="DEFAULT_VEHTYPE" speed="9.50" pos="33.68" lane="0.0.00_0" slope="0.00"/>
        <vehicle id="13" x="338.78" y="34.72" angle="0.03" type="DEFAULT_VEHTYPE" speed="7.38" pos="23.56" lane="19.0.00_0" slope="0.00"/>
        <vehicle id="14" x="395.68" y="5.22" angle="33.76" type="DEFAULT_VEHTYPE" speed="4.76" pos="14.39" lane="14.0.00_0" slope="0.00"/>
        <vehicle id="15" x="2.07" y="21.73" angle="0.00" type="DEFAULT_VEHTYPE" speed="4.03" pos="10.57" lane="15.0.00_0" slope="0.00"/>
        <vehicle id="16" x="394.38" y="326.01" angle="337.67" type="DEFAULT_VEHTYPE" speed="2.60" pos="7.70" lane="11.0.00_0" slope="0.00"/>
        <vehicle id="17" x="16.19" y="326.63" angle="89.98" type="DEFAULT_VEHTYPE" speed="0.00" pos="5.10" lane="3.0.00_0" slope="0.00"/>
        <vehicle id="2" x="323.57" y="269.14" angle="89.99" type="DEFAULT_VEHTYPE" speed="5.57" pos="156.33" lane="-10.0.00_0" slope="0.00"/>
        <vehicle id="3" x="338.86" y="171.57" angle="0.03" type="DEFAULT_VEHTYPE" speed="13.33" pos="28.61" lane="18.0.00_0" slope="0.00"/>
        <vehicle id="4" x="177.35" y="2.01" angle="270.00" type="DEFAULT_VEHTYPE" speed="13.34" pos="148.43" lane="6.0.00_0" slope="0.00"/>
        <vehicle id="5" x="280.92" y="269.13" angle="89.99" type="DEFAULT_VEHTYPE" speed="11.46" pos="113.68" lane="-10.0.00_0" slope="0.00"/>
        <vehicle id="6" x="128.20" y="326.66" angle="90.00" type="DEFAULT_VEHTYPE" speed="13.91" pos="25.44" lane="2.0.00_0" slope="0.00"/>
        <vehicle id="7" x="396.38" y="84.93" angle="0.00" type="DEFAULT_VEHTYPE" speed="11.10" pos="74.86" lane="-8.0.00_0" slope="0.00"/>
        <vehicle id="8" x="88.54" y="318.64" angle="189.58" type="DEFAULT_VEHTYPE" speed="8.81" pos="12.23" lane=":77_6_0" slope="0.00"/>
        <vehicle id="9" x="328.66" y="199.50" angle="241.17" type="DEFAULT_VEHTYPE" speed="7.00" pos="11.63" lane=":139_0_0" slope="0.00"/>
    </timestep>
    <timestep time="18.00">
        <vehicle id="0" x="334.89" y="196.00" angle="326.28" type="DEFAULT_VEHTYPE" speed="4.56" pos="3.47" lane=":139_6_0" slope="0.00"/>
        <vehicle id="1" x="236.86" y="199.13" angle="270.03" type="DEFAULT_VEHTYPE" speed="11.92" pos="88.84" lane="4.0.00_0" slope="0.00"/>
        <vehicle id="10" x="240.13" y="326.65" angle="90.00" type="DEFAULT_VEHTYPE" speed="14.37" pos="71.99" lane="1.0.00_0" slope="0.00"/>
        <vehicle id="11" x="396.39" y="59.09" angle="0.00" type="DEFAULT_VEHTYPE" speed="11.65" pos="49.02" lane="-8.0.00_0" slope="0.00"/>
        <vehicle id="12" x="391.56" y="322.97" angle="130.82" type="DEFAULT_VEHTYPE" speed="10.96" pos="5.98" lane="-11.0.00_0" slope="0.00"/>
        <vehicle id="13" x="338.79" y="44.54" angle="0.03" type="DEFAULT_VEHTYPE" speed="9.81" pos="33.38" lane="19.0.00_0" slope="0.00"/>
        <vehicle id="14" x="396.41" y="11.18" angle="3.90" type="DEFAULT_VEHTYPE" speed="6.15" pos="1.11" lane="-8.0.00_0" slope="0.00"/>
        <vehicle id="15" x="2.07" y="27.93" angle="0.00" type="DEFAULT_VEHTYPE" speed="6.21" pos="16.77" lane="15.0.00_0" slope="0.00"/>
        <vehicle id="16" x="390.87" y="329.20" angle="312.65" type="DEFAULT_VEHTYPE" speed="4.79" pos="12.49" lane="11.0.00_0" slope="0.00"/>
        <vehicle id="17" x="17.94" y="326.63" angle="89.98" type="DEFAULT_VEHTYPE" speed="1.75" pos="6.85" lane="3.0.00_0" slope="0.00"/>
        <vehicle id="18" x="2.07" y="16.26" angle="0.00" type="DEFAULT_VEHTYPE" speed="0.00" pos="5.10" lane="15.0.00_0" slope="0.00"/>
        <vehicle id="2" x="331.58" y="270.02" angle="81.43" type="DEFAULT_VEHTYPE" speed="8.08" pos="5.97" lane=":111_5_0" slope="0.00"/>
        <vehicle id="3" x="338.87" y="180.40" angle="0.03" type="DEFAULT_VEHTYPE" speed="8.83" pos="37.45" lane="18.0.00_0" slope="0.00"/>
        <vehicle id="4" x="163.35" y="2.01" angle="270.00" type="DEFAULT_VEHTYPE" speed="13.99" pos="162.43" lane="6.0.00_0" slope="0.00"/>
        <vehicle id="5" x="292.00" y="269.14" angle="89.99" type="DEFAULT_VEHTYPE" speed="11.08" pos="124.76" lane="-10.0.00_0" slope="0.00"/>
        <vehicle id="6" x="141.62" y="326.66" angle="90.00" type="DEFAULT_VEHTYPE" speed="13.42" pos="38.86" lane="2.0.00_0" slope="0.00"/>
        <vehicle id="7" x="396.38" y="96.50" angle="0.00" type="DEFAULT_VEHTYPE" speed="11.57" pos="86.43" lane="-8.0.00_0" slope="0.00"/>
        <vehicle id="8" x="88.43" y="309.70" angle="179.98" type="DEFAULT_VEHTYPE" speed="8.96" pos="8.25" lane="-21.0.00_0" slope="0.00"/>
        <vehicle id="9" x="322.10" y="199.09" angle="267.80" type="DEFAULT_VEHTYPE" speed="6.59" pos="3.60" lane="4.0.00_0" slope="0.00"/>
    </timestep>
    <timestep time="19.00">
        <vehicle id="0" x="330.12" y="198.41" angle="296.38" type="DEFAULT_VEHTYPE" speed="5.44" pos="8.91" lane=":139_6_0" slope="0.00"/>
        <vehicle id="1" x="224.22" y="199.14" angle="270.03" type="DEFAULT_VEHTYPE" speed="12.65" pos="101.48" lane="4.0.00_0" slope="0.00"/>
        <vehicle id="10" x="254.73" y="326.64" angle="90.00" type="DEFAULT_VEHTYPE" speed="14.59" pos="86.58" lane="1.0.00_0" slope="0.00"/>
        <vehicle id="11" x="396.39" y="72.52" angle="0.00" type="DEFAULT_VEHTYPE" speed="13.42" pos="62.45" lane="-8.0.00_0" slope="0.00"/>
        <vehicle id="12" x="392.43" y="309.79" angle="180.11" type="DEFAULT_VEHTYPE" speed="13.43" pos="8.97" lane="8.0.00_0" slope="0.00"/>
        <vehicle id="13" x="338.79" y="56.21" angle="0.03" type="DEFAULT_VEHTYPE" speed="11.67" pos="45.05" lane="19.0.00_0" slope="0.00"/>
        <vehicle id="14" x="396.41" y="19.63" angle="0.00" type="DEFAULT_VEHTYPE" speed="8.44" pos="9.56" lane="-8.0.00_0" slope="0.00"/>
        <vehicle id="15" x="2.07" y="36.57" angle="0.00" type="DEFAULT_VEHTYPE" speed="8.63" pos="25.41" lane="15.0.00_0" slope="0.00"/>
        <vehicle id="16" x="384.64" y="330.59" angle="279.06" type="DEFAULT_VEHTYPE" speed="6.47" pos="0.01" lane="-0.0.00_0" slope="0.00"/>
        <vehicle id="17" x="22.23" y="326.63" angle="89.98" type="DEFAULT_VEHTYPE" speed="4.29" pos="11.14" lane="3.0.00_0" slope="0.00"/>
        <vehicle id="18" x="2.07" y="18.30" angle="0.00" type="DEFAULT_VEHTYPE" speed="2.04" pos="7.14" lane="15.0.00_0" slope="0.00"/>
        <vehicle id="19" x="391.10" y="323.72" angle="123.67" type="DEFAULT_VEHTYPE" speed="0.00" pos="5.10" lane="-11.0.00_0" slope="0.00"/>
        <vehicle id="2" x="337.90" y="276.16" angle="34.59" type="DEFAULT_VEHTYPE" speed="9.09" pos="15.05" lane=":111_5_0" slope="0.00"/>
        <vehicle id="3" x="338.87" y="187.13" angle="0.04" type="DEFAULT_VEHTYPE" speed="6.73" pos="2.19" lane=":139_2_0" slope="0.00"/>