<?xml version="1.0" encoding="UTF-8"?>

<!-- generated on Wed Aug 14 12:04:06 2019 by Eclipse SUMO Version 1.2.0
<configuration xmlns:xsi="http://www.w3.org/2001/XMLSchema-instance" xsi:noNamespaceSchemaLocation="http://sumo.dlr.de/xsd/sumoConfiguration.xsd">

    <input>
        <net-file value="Town01.net.xml"/>
        <route-files value="trips.trips.xml"/>
    </input>

    <output>
        <netstate-dump value="test.log"/>
        <fcd-output value="Town02_Car150_2.log"/>
    </output>

    <time>
        <begin value="0"/>
        <end value="10000"/>
    </time>

</configuration>
-->

<fcd-export xmlns:xsi="http://www.w3.org/2001/XMLSchema-instance" xsi:noNamespaceSchemaLocation="http://sumo.dlr.de/xsd/fcd_file.xsd">
    <timestep time="0.00">
        <vehicle id="0" x="338.77" y="16.26" angle="0.03" type="DEFAULT_VEHTYPE" speed="0.00" pos="5.10" lane="19.0.00_0" slope="0.00"/>
    </timestep>
    <timestep time="1.00">
        <vehicle id="0" x="338.77" y="18.77" angle="0.03" type="DEFAULT_VEHTYPE" speed="2.51" pos="7.61" lane="19.0.00_0" slope="0.00"/>
        <vehicle id="1" x="15.32" y="-1.93" angle="90.03" type="DEFAULT_VEHTYPE" speed="0.00" pos="5.10" lane="-5.0.00_0" slope="0.00"/>
    </timestep>
    <timestep time="2.00">
        <vehicle id="0" x="338.78" y="23.43" angle="0.03" type="DEFAULT_VEHTYPE" speed="4.66" pos="12.27" lane="19.0.00_0" slope="0.00"/>
        <vehicle id="1" x="17.53" y="-1.93" angle="90.03" type="DEFAULT_VEHTYPE" speed="2.21" pos="7.31" lane="-5.0.00_0" slope="0.00"/>
        <vehicle id="2" x="391.10" y="323.72" angle="123.67" type="DEFAULT_VEHTYPE" speed="0.00" pos="5.10" lane="-11.0.00_0" slope="0.00"/>
    </timestep>
    <timestep time="3.00">
        <vehicle id="0" x="338.78" y="29.46" angle="0.03" type="DEFAULT_VEHTYPE" speed="6.04" pos="18.30" lane="19.0.00_0" slope="0.00"/>
        <vehicle id="1" x="22.03" y="-1.94" angle="90.03" type="DEFAULT_VEHTYPE" speed="4.51" pos="11.81" lane="-5.0.00_0" slope="0.00"/>
        <vehicle id="2" x="392.15" y="321.51" angle="144.07" type="DEFAULT_VEHTYPE" speed="2.47" pos="7.57" lane="-11.0.00_0" slope="0.00"/>
        <vehicle id="3" x="320.63" y="133.45" angle="270.01" type="DEFAULT_VEHTYPE" speed="0.00" pos="5.10" lane="12.0.00_0" slope="0.00"/>
    </timestep>
    <timestep time="4.00">
        <vehicle id="0" x="338.78" y="37.88" angle="0.03" type="DEFAULT_VEHTYPE" speed="8.42" pos="26.72" lane="19.0.00_0" slope="0.00"/>
        <vehicle id="1" x="28.94" y="-1.94" angle="90.03" type="DEFAULT_VEHTYPE" speed="6.90" pos="18.72" lane="-5.0.00_0" slope="0.00"/>
        <vehicle id="2" x="392.44" y="317.65" angle="172.51" type="DEFAULT_VEHTYPE" speed="3.99" pos="1.11" lane="8.0.00_0" slope="0.00"/>
        <vehicle id="3" x="318.88" y="133.45" angle="270.01" type="DEFAULT_VEHTYPE" speed="1.75" pos="6.85" lane="12.0.00_0" slope="0.00"/>
        <vehicle id="4" x="389.29" y="-1.11" angle="79.65" type="DEFAULT_VEHTYPE" speed="0.00" pos="5.10" lane="14.0.00_0" slope="0.00"/>
    </timestep>
    <timestep time="5.00">
        <vehicle id="0" x="338.79" y="47.85" angle="0.03" type="DEFAULT_VEHTYPE" speed="9.96" pos="36.69" lane="19.0.00_0" slope="0.00"/>
        <vehicle id="1" x="37.53" y="-1.95" angle="90.03" type="DEFAULT_VEHTYPE" speed="8.59" pos="27.31" lane="-5.0.00_0" slope="0.00"/>
        <vehicle id="2" x="392.43" y="311.24" angle="180.11" type="DEFAULT_VEHTYPE" speed="6.40" pos="7.52" lane="8.0.00_0" slope="0.00"/>
        <vehicle id="3" x="315.22" y="133.45" angle="270.01" type="DEFAULT_VEHTYPE" speed="3.66" pos="10.51" lane="12.0.00_0" slope="0.00"/>
        <vehicle id="4" x="391.11" y="-0.22" angle="70.28" type="DEFAULT_VEHTYPE" speed="2.03" pos="7.13" lane="14.0.00_0" slope="0.00"/>
        <vehicle id="5" x="391.20" y="5.22" angle="194.33" type="DEFAULT_VEHTYPE" speed="0.00" pos="5.10" lane="-14.0.00_0" slope="0.00"/>
    </timestep>
    <timestep time="6.00">
        <vehicle id="0" x="338.80" y="59.61" angle="0.03" type="DEFAULT_VEHTYPE" speed="11.76" pos="48.45" lane="19.0.00_0" slope="0.00"/>
        <vehicle id="1" x="47.83" y="-1.95" angle="90.03" type="DEFAULT_VEHTYPE" speed="10.31" pos="37.61" lane="-5.0.00_0" slope="0.00"/>
        <vehicle id="2" x="392.42" y="303.38" angle="180.11" type="DEFAULT_VEHTYPE" speed="7.86" pos="15.38" lane="8.0.00_0" slope="0.00"/>
        <vehicle id="3" x="309.48" y="133.45" angle="270.01" type="DEFAULT_VEHTYPE" speed="5.75" pos="16.25" lane="12.0.00_0" slope="0.00"/>
        <vehicle id="4" x="394.10" y="2.38" angle="51.76" type="DEFAULT_VEHTYPE" speed="3.98" pos="11.11" lane="14.0.00_0" slope="0.00"/>
        <vehicle id="5" x="390.33" y="4.17" angle="204.67" type="DEFAULT_VEHTYPE" speed="1.38" pos="6.48" lane="-14.0.00_0" slope="0.00"/>
        <vehicle id="6" x="338.89" y="213.13" angle="0.03" type="DEFAULT_VEHTYPE" speed="0.00" pos="5.10" lane="17.0.00_0" slope="0.00"/>
    </timestep>
    <timestep time="7.00">
        <vehicle id="0" x="338.80" y="73.37" angle="0.03" type="DEFAULT_VEHTYPE" speed="13.76" pos="62.21" lane="19.0.00_0" slope="0.00"/>
        <vehicle id="1" x="59.88" y="-1.96" angle="90.03" type="DEFAULT_VEHTYPE" speed="12.05" pos="49.66" lane="-5.0.00_0" slope="0.00"/>
        <vehicle id="2" x="392.41" y="293.09" angle="180.06" type="DEFAULT_VEHTYPE" speed="10.29" pos="25.67" lane="8.0.00_0" slope="0.00"/>
        <vehicle id="3" x="302.15" y="133.45" angle="270.01" type="DEFAULT_VEHTYPE" speed="7.33" pos="23.58" lane="12.0.00_0" slope="0.00"/>
        <vehicle id="4" x="396.36" y="8.40" angle="16.46" type="DEFAULT_VEHTYPE" speed="6.54" pos="17.66" lane="14.0.00_0" slope="0.00"/>
        <vehicle id="5" x="388.05" y="2.73" angle="228.19" type="DEFAULT_VEHTYPE" speed="2.70" pos="9.18" lane="-14.0.00_0" slope="0.00"/>
        <vehicle id="6" x="338.89" y="215.62" angle="0.03" type="DEFAULT_VEHTYPE" speed="2.49" pos="7.59" lane="17.0.00_0" slope="0.00"/>
        <vehicle id="7" x="320.59" y="273.14" angle="269.99" type="DEFAULT_VEHTYPE" speed="0.00" pos="5.10" lane="10.0.00_0" slope="0.00"/>
    </timestep>
    <timestep time="8.00">
        <vehicle id="0" x="338.81" y="87.37" angle="0.03" type="DEFAULT_VEHTYPE" speed="14.01" pos="76.21" lane="19.0.00_0" slope="0.00"/>
        <vehicle id="1" x="72.31" y="-1.97" angle="90.03" type="DEFAULT_VEHTYPE" speed="12.43" pos="62.09" lane="-5.0.00_0" slope="0.00"/>
        <vehicle id="2" x="392.40" y="280.68" angle="180.04" type="DEFAULT_VEHTYPE" speed="12.41" pos="38.08" lane="8.0.00_0" slope="0.00"/>
        <vehicle id="3" x="293.22" y="133.45" angle="270.01" type="DEFAULT_VEHTYPE" speed="8.92" pos="32.51" lane="12.0.00_0" slope="0.00"/>
        <vehicle id="4" x="396.41" y="16.57" angle="0.00" type="DEFAULT_VEHTYPE" speed="8.27" pos="6.50" lane="-8.0.00_0" slope="0.00"/>
        <vehicle id="5" x="384.02" y="2.00" angle="257.37" type="DEFAULT_VEHTYPE" speed="4.14" pos="0.29" lane=":7.14_0_0" slope="0.00"/>
        <vehicle id="6" x="338.90" y="219.98" angle="0.03" type="DEFAULT_VEHTYPE" speed="4.36" pos="11.95" lane="17.0.00_0" slope="0.00"/>
        <vehicle id="7" x="319.15" y="273.14" angle="269.99" type="DEFAULT_VEHTYPE" speed="1.44" pos="6.54" lane="10.0.00_0" slope="0.00"/>
        <vehicle id="8" x="338.77" y="16.26" angle="0.03" type="DEFAULT_VEHTYPE" speed="0.00" pos="5.10" lane="19.0.00_0" slope="0.00"/>
    </timestep>
    <timestep time="9.00">
        <vehicle id="0" x="338.82" y="101.73" angle="0.03" type="DEFAULT_VEHTYPE" speed="14.36" pos="90.57" lane="19.0.00_0" slope="0.00"/>
        <vehicle id="1" x="80.66" y="-1.80" angle="88.03" type="DEFAULT_VEHTYPE" speed="8.37" pos="1.21" lane=":195_5_0" slope="0.00"/>
        <vehicle id="2" x="392.38" y="267.45" angle="180.06" type="DEFAULT_VEHTYPE" speed="13.23" pos="51.31" lane="8.0.00_0" slope="0.00"/>
        <vehicle id="3" x="282.21" y="133.45" angle="270.01" type="DEFAULT_VEHTYPE" speed="11.01" pos="43.52" lane="12.0.00_0" slope="0.00"/>
        <vehicle id="4" x="396.40" y="26.16" angle="359.89" type="DEFAULT_VEHTYPE" speed="9.59" pos="16.09" lane="-8.0.00_0" slope="0.00"/>
        <vehicle id="5" x="377.67" y="2.00" angle="270.00" type="DEFAULT_VEHTYPE" speed="6.34" pos="6.31" lane="7.0.00_0" slope="0.00"/>
        <vehicle id="6" x="338.90" y="226.88" angle="0.03" type="DEFAULT_VEHTYPE" speed="6.90" pos="18.85" lane="17.0.00_0" slope="0.00"/>
        <vehicle id="7" x="316.03" y="273.14" angle="269.99" type="DEFAULT_VEHTYPE" speed="3.12" pos="9.66" lane="10.0.00_0" slope="0.00"/>
        <vehicle id="8" x="338.77" y="18.79" angle="0.03" type="DEFAULT_VEHTYPE" speed="2.53" pos="7.63" lane="19.0.00_0" slope="0.00"/>
    </timestep>
    <timestep time="10.00">
        <vehicle id="0" x="338.83" y="116.37" angle="0.03" type="DEFAULT_VEHTYPE" speed="14.64" pos="105.21" lane="19.0.00_0" slope="0.00"/>
        <vehicle id="1" x="86.01" y="-0.62" angle="77.14" type="DEFAULT_VEHTYPE" speed="5.54" pos="6.75" lane=":195_5_0" slope="0.00"/>
        <vehicle id="10" x="389.29" y="-1.11" angle="79.65" type="DEFAULT_VEHTYPE" speed="0.00" pos="5.10" lane="14.0.00_0" slope="0.00"/>
        <vehicle id="2" x="392.36" y="253.46" angle="180.11" type="DEFAULT_VEHTYPE" speed="13.99" pos="65.30" lane="8.0.00_0" slope="0.00"/>
        <vehicle id="3" x="269.46" y="133.46" angle="270.01" type="DEFAULT_VEHTYPE" speed="12.75" pos="56.27" lane="12.0.00_0" slope="0.00"/>
        <vehicle id="4" x="396.40" y="38.25" angle="0.00" type="DEFAULT_VEHTYPE" speed="12.09" pos="28.18" lane="-8.0.00_0" slope="0.00"/>
        <vehicle id="5" x="368.82" y="2.00" angle="270.00" type="DEFAULT_VEHTYPE" speed="8.85" pos="15.16" lane="7.0.00_0" slope="0.00"/>
        <vehicle id="6" x="338.91" y="236.00" angle="0.03" type="DEFAULT_VEHTYPE" speed="9.12" pos="27.97" lane="17.0.00_0" slope="0.00"/>
        <vehicle id="7" x="310.38" y="273.14" angle="269.99" type="DEFAULT_VEHTYPE" speed="5.66" pos="15.31" lane="10.0.00_0" slope="0.00"/>
        <vehicle id="8" x="338.78" y="22.99" angle="0.03" type="DEFAULT_VEHTYPE" speed="4.20" pos="11.83" lane="19.0.00_0" slope="0.00"/>
    </timestep>
    <timestep time="11.00">
        <vehicle id="0" x="338.84" y="130.50" angle="0.05" type="DEFAULT_VEHTYPE" speed="14.13" pos="11.04" lane=":94_2_0" slope="0.00"/>
        <vehicle id="1" x="91.25" y="4.78" angle="36.10" type="DEFAULT_VEHTYPE" speed="7.75" pos="6.51" lane=":195_6_0" slope="0.00"/>
        <vehicle id="10" x="390.59" y="-0.52" angle="73.35" type="DEFAULT_VEHTYPE" speed="1.42" pos="6.52" lane="14.0.00_0" slope="0.00"/>
        <vehicle id="11" x="353.39" y="326.61" angle="90.03" type="DEFAULT_VEHTYPE" speed="0.00" pos="5.10" lane="0.0.00_0" slope="0.00"/>
        <vehicle id="2" x="392.35" y="240.12" angle="180.00" type="DEFAULT_VEHTYPE" speed="13.34" pos="78.64" lane="8.0.00_0" slope="0.00"/>
        <vehicle id="3" x="254.94" y="133.46" angle="270.01" type="DEFAULT_VEHTYPE" speed="14.52" pos="70.79" lane="12.0.00_0" slope="0.00"/>
        <vehicle id="4" x="396.39" y="52.22" angle="359.89" type="DEFAULT_VEHTYPE" speed="13.98" pos="42.15" lane="-8.0.00_0" slope="0.00"/>
        <vehicle id="5" x="357.85" y="2.00" angle="270.00" type="DEFAULT_VEHTYPE" speed="10.97" pos="26.13" lane="7.0.00_0" slope="0.00"/>
        <vehicle id="6" x="338.91" y="247.56" angle="0.03" type="DEFAULT_VEHTYPE" speed="11.55" pos="39.53" lane="17.0.00_0" slope="0.00"/>
        <vehicle id="7" x="302.76" y="273.14" angle="269.99" type="DEFAULT_VEHTYPE" speed="7.62" pos="22.93" lane="10.0.00_0" slope="0.00"/>
        <vehicle id="8" x="338.78" y="28.52" angle="0.03" type="DEFAULT_VEHTYPE" speed="5.53" pos="17.36" lane="19.0.00_0" slope="0.00"/>
        <vehicle id="9" x="338.77" y="16.26" angle="0.03" type="DEFAULT_VEHTYPE" speed="0.00" pos="5.10" lane="19.0.00_0" slope="0.00"/>
    </timestep>
    <timestep time="12.00">
        <vehicle id="0" x="338.85" y="144.71" angle="0.04" type="DEFAULT_VEHTYPE" speed="14.20" pos="1.75" lane="18.0.00_0" slope="0.00"/>
        <vehicle id="1" x="92.48" y="13.71" angle="4.12" type="DEFAULT_VEHTYPE" speed="9.10" pos="2.40" lane="24.0.00_0" slope="0.00"/>
        <vehicle id="10" x="393.10" y="1.28" angle="58.60" type="DEFAULT_VEHTYPE" speed="3.10" pos="9.63" lane="14.0.00_0" slope="0.00"/>
        <vehicle id="11" x="355.14" y="326.61" angle="90.03" type="DEFAULT_VEHTYPE" speed="1.75" pos="6.85" lane="0.0.00_0" slope="0.00"/>
        <vehicle id="12" x="74.37" y="2.03" angle="270.03" type="DEFAULT_VEHTYPE" speed="0.00" pos="5.10" lane="5.0.00_0" slope="0.00"/>
        <vehicle id="2" x="392.35" y="227.09" angle="180.00" type="DEFAULT_VEHTYPE" speed="13.02" pos="91.67" lane="8.0.00_0" slope="0.00"/>
        <vehicle id="3" x="240.34" y="133.46" angle="270.01" type="DEFAULT_VEHTYPE" speed="14.60" pos="85.39" lane="12.0.00_0" slope="0.00"/>
        <vehicle id="4" x="396.39" y="65.72" angle="0.00" type="DEFAULT_VEHTYPE" speed="13.50" pos="55.65" lane="-8.0.00_0" slope="0.00"/>
        <vehicle id="5" x="347.57" y="2.00" angle="270.00" type="DEFAULT_VEHTYPE" speed="10.28" pos="0.22" lane=":60_3_0" slope="0.00"/>
        <vehicle id="7" x="293.31" y="273.14" angle="269.99" type="DEFAULT_VEHTYPE" speed="9.45" pos="32.38" lane="10.0.00_0" slope="0.00"/>
        <vehicle id="8" x="338.78" y="36.01" angle="0.03" type="DEFAULT_VEHTYPE" speed="7.48" pos="24.85" lane="19.0.00_0" slope="0.00"/>
        <vehicle id="9" x="338.77" y="18.27" angle="0.03" type="DEFAULT_VEHTYPE" speed="2.01" pos="7.11" lane="19.0.00_0" slope="0.00"/>
    </timestep>
    <timestep time="13.00">
        <vehicle id="0" x="338.86" y="158.95" angle="0.03" type="DEFAULT_VEHTYPE" speed="14.24" pos="15.99" lane="18.0.00_0" slope="0.00"/>
        <vehicle id="1" x="92.48" y="24.77" angle="359.99" type="DEFAULT_VEHTYPE" speed="11.06" pos="13.46" lane="24.0.00_0" slope="0.00"/>
        <vehicle id="10" x="395.68" y="5.22" angle="33.76" type="DEFAULT_VEHTYPE" speed="4.76" pos="14.39" lane="14.0.00_0" slope="0.00"/>
        <vehicle id="11" x="359.11" y="326.60" angle="90.03" type="DEFAULT_VEHTYPE" speed="3.97" pos="10.82" lane="0.0.00_0" slope="0.00"/>
        <vehicle id="12" x="73.01" y="2.03" angle="270.03" type="DEFAULT_VEHTYPE" speed="1.36" pos="6.46" lane="5.0.00_0" slope="0.00"/>
        <vehicle id="2" x="392.35" y="213.21" angle="180.00" type="DEFAULT_VEHTYPE" speed="13.88" pos="105.55" lane="8.0.00_0" slope="0.00"/>
        <vehicle id="3" x="225.93" y="133.46" angle="270.01" type="DEFAULT_VEHTYPE" speed="14.41" pos="99.80" lane="12.0.00_0" slope="0.00"/>
        <vehicle id="4" x="396.38" y="79.67" angle="359.96" type="DEFAULT_VEHTYPE" speed="13.95" pos="69.60" lane="-8.0.00_0" slope="0.00"/>
        <vehicle id="5" x="337.28" y="2.00" angle="270.00" type="DEFAULT_VEHTYPE" speed="10.28" pos="10.51" lane=":60_3_0" slope="0.00"/>
        <vehicle id="7" x="281.31" y="273.13" angle="269.99" type="DEFAULT_VEHTYPE" speed="11.99" pos="44.38" lane="10.0.00_0" slope="0.00"/>
        <vehicle id="8" x="338.79" y="45.11" angle="0.03" type="DEFAULT_VEHTYPE" speed="9.10" pos="33.95" lane="19.0.00_0" slope="0.00"/>
        <vehicle id="9" x="338.78" y="22.61" angle="0.03" type="DEFAULT_VEHTYPE" speed="4.34" pos="11.45" lane="19.0.00_0" slope="0.00"/>
    </timestep>
    <timestep time="14.00">
        <vehicle id="0" x="338.86" y="173.50" angle="0.03" type="DEFAULT_VEHTYPE" speed="14.55" pos="30.55" lane="18.0.00_0" slope="0.00"/>
        <vehicle id="1" x="92.48" y="37.69" angle="359.99" type="DEFAULT_VEHTYPE" speed="12.92" pos="26.38" lane="24.0.00_0" slope="0.00"/>
        <vehicle id="10" x="396.41" y="11.18" angle="3.90" type="DEFAULT_VEHTYPE" speed="6.15" pos="1.11" lane="-8.0.00_0" slope="0.00"/>
        <vehicle id="11" x="364.76" y="326.60" angle="90.03" type="DEFAULT_VEHTYPE" speed="5.65" pos="16.47" lane="0.0.00_0" slope="0.00"/>
        <vehicle id="12" x="70.15" y="2.04" angle="270.03" type="DEFAULT_VEHTYPE" speed="2.86" pos="9.32" lane="5.0.00_0" slope="0.00"/>
        <vehicle id="14" x="74.34" y="330.65" angle="269.98" type="DEFAULT_VEHTYPE" speed="0.00" pos="5.10" lane="-3.0.00_0" slope="0.00"/>
        <vehicle id="2" x="392.36" y="199.51" angle="179.96" type="DEFAULT_VEHTYPE" speed="13.71" pos="119.25" lane="8.0.00_0" slope="0.00"/>
        <vehicle id="3" x="211.57" y="133.46" angle="270.01" type="DEFAULT_VEHTYPE" speed="14.36" pos="114.16" lane="12.0.00_0" slope="0.00"/>
        <vehicle id="4" x="396.38" y="93.97" angle="0.00" type="DEFAULT_VEHTYPE" speed="14.30" pos="83.90" lane="-8.0.00_0" slope="0.00"/>
        <vehicle id="5" x="326.28" y="2.00" angle="270.00" type="DEFAULT_VEHTYPE" speed="11.00" pos="21.51" lane=":60_3_0" slope="0.00"/>
        <vehicle id="7" x="269.97" y="273.13" angle="269.99" type="DEFAULT_VEHTYPE" speed="11.34" pos="55.72" lane="10.0.00_0" slope="0.00"/>
        <vehicle id="8" x="338.79" y="56.18" angle="0.03" type="DEFAULT_VEHTYPE" speed="11.07" pos="45.02" lane="19.0.00_0" slope="0.00"/>
        <vehicle id="9" x="338.78" y="28.32" angle="0.03" type="DEFAULT_VEHTYPE" speed="5.72" pos="17.16" lane="19.0.00_0" slope="0.00"/>
    </timestep>
    <timestep time="15.00">
        <vehicle id="0" x="338.87" y="187.44" angle="0.04" type="DEFAULT_VEHTYPE" speed="13.95" pos="2.50" lane=":139_2_0" slope="0.00"/>
        <vehicle id="1" x="92.47" y="49.50" angle="359.99" type="DEFAULT_VEHTYPE" speed="11.81" pos="38.19" lane="24.0.00_0" slope="0.00"/>
        <vehicle id="10" x="396.41" y="19.42" angle="0.00" type="DEFAULT_VEHTYPE" speed="8.24" pos="9.35" lane="-8.0.00_0" slope="0.00"/>
        <vehicle id="11" x="372.47" y="326.60" angle="90.03" type="DEFAULT_VEHTYPE" speed="7.71" pos="24.18" lane="0.0.00_0" slope="0.00"/>
        <vehicle id="12" x="65.83" y="2.04" angle="270.03" type="DEFAULT_VEHTYPE" speed="4.32" pos="13.64" lane="5.0.00_0" slope="0.00"/>
        <vehicle id="14" x="72.45" y="330.65" angle="269.98" type="DEFAULT_VEHTYPE" speed="1.89" pos="6.99" lane="-3.0.00_0" slope="0.00"/>
        <vehicle id="15" x="391.10" y="323.72" angle="123.67" type="DEFAULT_VEHTYPE" speed="0.00" pos="5.10" lane="-11.0.00_0" slope="0.00"/>
        <vehicle id="2" x="392.36" y="185.71" angle="180.00" type="DEFAULT_VEHTYPE" speed="13.79" pos="133.05" lane="8.0.00_0" slope="0.00"/>
        <vehicle id="3" x="197.15" y="133.46" angle="270.01" type="DEFAULT_VEHTYPE" speed="14.42" pos="128.58" lane="12.0.00_0" slope="0.00"/>
        <vehicle id="4" x="396.38" y="108.00" angle="0.00" type="DEFAULT_VEHTYPE" speed="14.03" pos="97.93" lane="-8.0.00_0" slope="0.00"/>
        <vehicle id="5" x="315.74" y="2.00" angle="270.00" type="DEFAULT_VEHTYPE" speed="10.54" pos="10.04" lane="6.0.00_0" slope="0.00"/>
        <vehicle id="7" x="257.99" y="273.13" angle="269.99" type="DEFAULT_VEHTYPE" speed="11.98" pos="67.70" lane="10.0.00_0" slope="0.00"/>
        <vehicle id="8" x="338.80" y="68.15" angle="0.03" type="DEFAULT_VEHTYPE" speed="11.97" pos="56.99" lane="19.0.00_0" slope="0.00"/>
        <vehicle id="9" x="338.78" y="35.90" angle="0.03" type="DEFAULT_VEHTYPE" speed="7.58" pos="24.74" lane="19.0.00_0" slope="0.00"/>
    </timestep>
    <timestep time="16.00">
        <vehicle id="0" x="338.88" y="201.89" angle="0.05" type="DEFAULT_VEHTYPE" speed="14.44" pos="16.95" lane=":139_2_0" slope="0.00"/>
        <vehicle id="1" x="92.47" y="62.32" angle="359.99" type="DEFAULT_VEHTYPE" speed="12.82" pos="51.01" lane="24.0.00_0" slope="0.00"/>
        <vehicle id="10" x="396.40" y="29.06" angle="0.00" type="DEFAULT_VEHTYPE" speed="9.63" pos="18.99" lane="-8.0.00_0" slope="0.00"/>
        <vehicle id="11" x="379.95" y="326.59" angle="90.03" type="DEFAULT_VEHTYPE" speed="7.48" pos="31.66" lane="0.0.00_0" slope="0.00"/>
        <vehicle id="12" x="58.96" y="2.04" angle="270.03" type="DEFAULT_VEHTYPE" speed="6.87" pos="20.51" lane="5.0.00_0" slope="0.00"/>
        <vehicle id="13" x="396.41" y="15.17" angle="0.00" type="DEFAULT_VEHTYPE" speed="0.00" pos="5.10" lane="-8.0.00_0" slope="0.00"/>
        <vehicle id="14" x="68.22" y="330.65" angle="269.98" type="DEFAULT_VEHTYPE" speed="4.23" pos="11.22" lane="-3.0.00_0" slope="0.00"/>
        <vehicle id="15" x="392.06" y="321.91" angle="140.40" type="DEFAULT_VEHTYPE" speed="2.05" pos="7.15" lane="-11.0.00_0" slope="0.00"/>
        <vehicle id="16" x="320.63" y="133.45" angle="270.01" type="DEFAULT_VEHTYPE" speed="0.00" pos="5.10" lane="12.0.00_0" slope="0.00"/>
        <vehicle id="2" x="392.36" y="172.29" angle="180.00" type="DEFAULT_VEHTYPE" speed="13.42" pos="146.47" lane="8.0.00_0" slope="0.00"/>
        <vehicle id="3" x="183.30" y="133.46" angle="270.01" type="DEFAULT_VEHTYPE" speed="13.84" pos="142.43" lane="12.0.00_0" slope="0.00"/>
        <vehicle id="4" x="396.37" y="121.33" angle="0.00" type="DEFAULT_VEHTYPE" speed="13.32" pos="111.26" lane="-8.0.00_0" slope="0.00"/>
        <vehicle id="5" x="305.13" y="2.00" angle="270.00" type="DEFAULT_VEHTYPE" speed="10.61" pos="20.65" lane="6.0.00_0" slope="0.00"/>
        <vehicle id="7" x="246.39" y="273.13" angle="269.99" type="DEFAULT_VEHTYPE" speed="11.60" pos="79.30" lane="10.0.00_0" slope="0.00"/>
        <vehicle id="8" x="338.81" y="80.58" angle="0.03" type="DEFAULT_VEHTYPE" speed="12.43" pos="69.42" lane="19.0.00_0" slope="0.00"/>
        <vehicle id="9" x="338.79" y="44.82" angle="0.03" type="DEFAULT_VEHTYPE" speed="8.92" pos="33.66" lane="19.0.00_0" slope="0.00"/>
    </timestep>
    <timestep time="17.00">
        <vehicle id="0" x="338.89" y="216.48" angle="0.03" type="DEFAULT_VEHTYPE" speed="14.59" pos="8.45" lane="17.0.00_0" slope="0.00"/>
        <vehicle id="1" x="92.47" y="74.19" angle="359.99" type="DEFAULT_VEHTYPE" speed="11.87" pos="62.88" lane="24.0.00_0" slope="0.00"/>
        <vehicle id="10" x="396.40" y="40.56" angle="0.00" type="DEFAULT_VEHTYPE" speed="11.50" pos="30.49" lane="-8.0.00_0" slope="0.00"/>
        <vehicle id="11" x="384.39" y="326.59" angle="90.03" type="DEFAULT_VEHTYPE" speed="4.44" pos="36.10" lane="0.0.00_0" slope="0.00"/>
        <vehicle id="12" x="50.03" y="2.05" angle="270.03" type="DEFAULT_VEHTYPE" speed="8.93" pos="29.44" lane="5.0.00_0" slope="0.00"/>
        <vehicle id="13" x="396.41" y="16.58" angle="0.00" type="DEFAULT_VEHTYPE" speed="1.41" pos="6.51" lane="-8.0.00_0" slope="0.00"/>
        <vehicle id="14" x="62.66" y="330.65" angle="269.98" type="DEFAULT_VEHTYPE" speed="5.56" pos="16.78" lane="-3.0.00_0" slope="0.00"/>
        <vehicle id="15" x="392.44" y="318.04" angle="170.50" type="DEFAULT_VEHTYPE" speed="4.01" pos="0.72" lane="8.0.00_0" slope="0.00"/>
        <vehicle id="16" x="318.76" y="133.45" angle="270.01" type="DEFAULT_VEHTYPE" speed="1.87" pos="6.97" lane="12.0.00_0" slope="0.00"/>
        <vehicle id="17" x="379.55" y="330.59" angle="270.03" type="DEFAULT_VEHTYPE" speed="0.00" pos="5.10" lane="-0.0.00_0" slope="0.00"/>
        <vehicle id="2" x="392.36" y="159.41" angle="180.00" type="DEFAULT_VEHTYPE" speed="12.89" pos="159.35" lane="8.0.00_0" slope="0.00"/>
        <vehicle id="3" x="169.54" y="133.46" angle="270.01" type="DEFAULT_VEHTYPE" speed="13.77" pos="156.19" lane="12.0.00_0" slope="0.00"/>
        <vehicle id="4" x="396.37" y="134.84" angle="0.00" type="DEFAULT_VEHTYPE" speed="13.51" pos="124.77" lane="-8.0.00_0" slope="0.00"/>
        <vehicle id="5" x="293.83" y="2.00" angle="270.00" type="DEFAULT_VEHTYPE" speed="11.31" pos="31.95" lane="6.0.00_0" slope="0.00"/>
        <vehicle id="7" x="235.05" y="273.13" angle="269.99" type="DEFAULT_VEHTYPE" speed="11.34" pos="90.64" lane="10.0.00_0" slope="0.00"/>
        <vehicle id="8" x="338.82" y="93.38" angle="0.03" type="DEFAULT_VEHTYPE" speed="12.81" pos="82.22" lane="19.0.00_0" slope="0.00"/>
        <vehicle id="9" x="338.79" y="55.39" angle="0.03" type="DEFAULT_VEHTYPE" speed="10.57" pos="44.23" lane="19.0.00_0" slope="0.00"/>
    </timestep>
    <timestep time="18.00">
        <vehicle id="0" x="338.90" y="230.22" angle="0.03" type="DEFAULT_VEHTYPE" speed="13.75" pos="22.19" lane="17.0.00_0" slope="0.00"/>
        <vehicle id="1" x="92.47" y="86.03" angle="359.99" type="DEFAULT_VEHTYPE" speed="11.84" pos="74.72" lane="24.0.00_0" slope="0.00"/>
        <vehicle id="10" x="396.39" y="53.84" angle="359.95" type="DEFAULT_VEHTYPE" speed="13.28" pos="43.77" lane="-8.0.00_0" slope="0.00"/>
        <vehicle id="11" x="388.80" y="325.78" angle="99.47" type="DEFAULT_VEHTYPE" speed="4.54" pos="1.98" lane="-11.0.00_0" slope="0.00"/>
        <vehicle id="12" x="38.69" y="2.05" angle="270.03" type="DEFAULT_VEHTYPE" speed="11.34" pos="40.78" lane="5.0.00_0" slope="0.00"/>
        <vehicle id="13" x="396.41" y="20.28" angle="0.00" type="DEFAULT_VEHTYPE" speed="3.70" pos="10.21" lane="-8.0.00_0" slope="0.00"/>
        <vehicle id="14" x="55.71" y="330.64" angle="269.98" type="DEFAULT_VEHTYPE" speed="6.95" pos="23.73" lane="-3.0.00_0" slope="0.00"/>
        <vehicle id="15" x="392.43" y="311.48" angle="180.11" type="DEFAULT_VEHTYPE" speed="6.56" pos="7.28" lane="8.0.00_0" slope="0.00"/>
        <vehicle id="16" x="314.99" y="133.45" angle="270.01" type="DEFAULT_VEHTYPE" speed="3.77" pos="10.74" lane="12.0.00_0" slope="0.00"/>
        <vehicle id="17" x="377.97" y="330.59" angle="270.03" type="DEFAULT_VEHTYPE" speed="1.58" pos="6.68" lane="-0.0.00_0" slope="0.00"/>
        <vehicle id="18" x="338.93" y="287.29" angle="0.03" type="DEFAULT_VEHTYPE" speed="0.00" pos="5.10" lane="16.0.00_0" slope="0.00"/>
        <vehicle id="2" x="392.37" y="145.50" angle="180.00" type="DEFAULT_VEHTYPE" speed="13.90" pos="173.26" lane="8.0.00_0" slope="0.00"/>
        <vehicle id="3" x="155.77" y="133.47" angle="270.01" type="DEFAULT_VEHTYPE" speed="13.77" pos="169.96" lane="12.0.00_0" slope="0.00"/>
        <vehicle id="4" x="396.37" y="148.90" angle="0.00" type="DEFAULT_VEHTYPE" speed="14.06" pos="138.83" lane="-8.0.00_0" slope="0.00"/>
        <vehicle id="5" x="282.30" y="2.00" angle="270.00" type="DEFAULT_VEHTYPE" speed="11.52" pos="43.48" lane="6.0.00_0" slope="0.00"/>
        <vehicle id="7" x="222.75" y="273.13" angle="269.99" type="DEFAULT_VEHTYPE" speed="12.30" pos="102.93" lane="10.0.00_0" slope="0.00"/>
        <vehicle id="8" x="338.82" y="106.24" angle="0.03" type="DEFAULT_VEHTYPE" speed="12.86" pos="95.08" lane="19.0.00_0" slope="0.00"/>
        <vehicle id="9" x="338.80" y="66.55" angle="0.03" type="DEFAULT_VEHTYPE" speed="11.16" pos="55.39" lane="19.0.00_0" slope="0.00"/>
    </timestep>
    <timestep time="19.00">
        <vehicle id="0" x="338.91" y="244.90" angle="0.03" type="DEFAULT_VEHTYPE" speed="14.68" pos="36.87" lane="17.0.00_0" slope="0.00"/>
        <vehicle id="1" x="92.46" y="98.53" angle="359.99" type="DEFAULT_VEHTYPE" speed="12.50" pos="87.22" lane="24.0.00_0" slope="0.00"/>
        <vehicle id="10" x="396.39" y="68.72" angle="0.00" type="DEFAULT_VEHTYPE" speed="14.89" pos="58.65" lane="-8.0.00_0" slope="0.00"/>
        <vehicle id="11" x="392.36" y="320.54" angle="152.58" type="DEFAULT_VEHTYPE" speed="6.58" pos="8.55" lane="-11.0.00_0" slope="0.00"/>
        <vehicle id="12" x="24.86" y="2.06" angle="270.03" type="DEFAULT_VEHTYPE" speed="13.83" pos="54.61" lane="5.0.00_0" slope="0.00"/>
        <vehicle id="13" x="396.40" y="26.53" angle="359.89" type="DEFAULT_VEHTYPE" speed="6.25" pos="16.46" lane="-8.0.00_0" slope="0.00"/>
        <vehicle id="14" x="46.27" y="330.64" angle="269.98" type="DEFAULT_VEHTYPE" speed="9.44" pos="33.17" lane="-3.0.00_0" slope="0.00"/>
        <vehicle id="15" x="392.42" y="302.86" angle="180.11" type="DEFAULT_VEHTYPE" speed="8.61" pos="15.90" lane="8.0.00_0" slope="0.00"/>
        <vehicle id="16" x="309.53" y="133.45" angle="270.01" type="DEFAULT_VEHTYPE" speed="5.45" pos="16.20" lane="12.0.00_0" slope="0.00"/>
        <vehicle id="17" x="374.01" y="330.60" angle="270.03" type="DEFAULT_VEHTYPE" speed="3.96" pos="10.64" lane="-0.0.00_0" slope="0.00"/>
        <vehicle id="18" x="338.93" y="289.31" angle="0.03" type="DEFAULT_VEHTYPE" speed="2.02" pos="7.12" lane="16.0.00_0" slope="0.00"/>
        <vehicle id="19" x="139.95" y="273.12" angle="269.99" type="DEFAULT_VEHTYPE" speed="0.00" pos="5.10" lane="9.0.00_0" slope="0.00"/>
        <vehicle id="2" x="392.37" y="132.46" angle="180.00" type="DEFAULT_VEHTYPE" speed="13.04" pos="186.30" lane="8.0.00_0" slope="0.00"/>
        <vehicle id="3" x="141.21" y="133.47" angle="270.01" type="DEFAULT_VEHTYPE" speed="14.57" pos="184.52" lane="12.0.00_0" slope="0.00"/>
        <vehicle id="4" x="396.36" y="162.18" angle="359.92" type="DEFAULT_VEHTYPE" speed="13.28" pos="152.11" lane="-8.0.00_0" slope="0.00"/>
        <vehicle id="5" x="270.93" y="2.00" angle="270.00" type="DEFAULT_VEHTYPE" speed="11.37" pos="54.85" lane="6.0.00_0" slope="0.00"/>
        <vehicle id="7" x="211.32" y="273.13" angle="269.99" type="DEFAULT_VEHTYPE" speed="11.43" pos="114.37" lane="10.0.00_0" slope="0.00"/>
        <vehicle id="8" x="338.83" y="118.11" angle="0.03" type="DEFAULT_VEHTYPE" speed="11.87" pos="106.95" lane="19.0.00_0" slope="0.00"/>
        <vehicle id="9" x="338.81" y="77.45" angle="0.03" type="DEFAULT_VEHTYPE" speed="10.90" pos="66.29" lane="19.0.00_0" slope="0.00"/>
    </timestep>
    <timestep time="20.00">
        <vehicle id="0" x="338.92" y="256.68" angle="0.03" type="DEFAULT_VEHTYPE" speed="11.78" pos="48.65" lane="17.0.00_0" slope="0.00"/>
        <vehicle id="1" x="92.46" y="110.51" angle="359.99" type="DEFAULT_VEHTYPE" speed="11.98" pos="99.21" lane="24.0.00_0" slope="0.00"/>
        <vehicle id="10" x="396.38" y="83.17" angle="0.00" type="DEFAULT_VEHTYPE" speed="14.45" pos="73.10" lane="-8.0.00_0" slope="0.00"/>
        <vehicle id="11" x="392.43" y="312.37" angle="180.11" type="DEFAULT_VEHTYPE" speed="8.28" pos="6.39" lane="8.0.00_0" slope="0.00"/>
        <vehicle id="12" x="10.48" y="2.07" angle="270.03" type="DEFAULT_VEHTYPE" speed="14.37" pos="68.99" lane="5.0.00_0" slope="0.00"/>
        <vehicle id="13" x="396.40" y="34.64" angle="0.00" type="DEFAULT_VEHTYPE" speed="8.11" pos="24.57" lane="-8.0.00_0" slope="0.00"/>