<?xml version="1.0" encoding="UTF-8"?>

<!-- generated on Wed Aug 14 12:01:02 2019 by Eclipse SUMO Version 1.2.0
<configuration xmlns:xsi="http://www.w3.org/2001/XMLSchema-instance" xsi:noNamespaceSchemaLocation="http://sumo.dlr.de/xsd/sumoConfiguration.xsd">

    <input>
        <net-file value="Town01.net.xml"/>
        <route-files value="trips.trips.xml"/>
    </input>

    <output>
        <netstate-dump value="test.log"/>
        <fcd-output value="Town01_Car150_4.log"/>
    </output>

    <time>
        <begin value="0"/>
        <end value="10000"/>
    </time>

</configuration>
-->

<fcd-export xmlns:xsi="http://www.w3.org/2001/XMLSchema-instance" xsi:noNamespaceSchemaLocation="http://sumo.dlr.de/xsd/fcd_file.xsd">
    <timestep time="0.00">
        <vehicle id="0" x="2.07" y="16.26" angle="0.00" type="DEFAULT_VEHTYPE" speed="0.00" pos="5.10" lane="15.0.00_0" slope="0.00"/>
    </timestep>
    <timestep time="1.00">
        <vehicle id="0" x="2.07" y="17.69" angle="0.00" type="DEFAULT_VEHTYPE" speed="1.43" pos="6.53" lane="15.0.00_0" slope="0.00"/>
        <vehicle id="1" x="88.43" y="312.84" angle="179.98" type="DEFAULT_VEHTYPE" speed="0.00" pos="5.10" lane="-21.0.00_0" slope="0.00"/>
    </timestep>
    <timestep time="2.00">
        <vehicle id="0" x="2.07" y="21.73" angle="0.00" type="DEFAULT_VEHTYPE" speed="4.03" pos="10.57" lane="15.0.00_0" slope="0.00"/>
        <vehicle id="1" x="88.43" y="310.48" angle="179.98" type="DEFAULT_VEHTYPE" speed="2.36" pos="7.46" lane="-21.0.00_0" slope="0.00"/>
        <vehicle id="2" x="139.92" y="330.66" angle="270.00" type="DEFAULT_VEHTYPE" speed="0.00" pos="5.10" lane="-2.0.00_0" slope="0.00"/>
    </timestep>
    <timestep time="3.00">
        <vehicle id="0" x="2.07" y="27.93" angle="0.00" type="DEFAULT_VEHTYPE" speed="6.21" pos="16.77" lane="15.0.00_0" slope="0.00"/>
        <vehicle id="1" x="88.43" y="306.76" angle="179.98" type="DEFAULT_VEHTYPE" speed="3.72" pos="11.19" lane="-21.0.00_0" slope="0.00"/>
        <vehicle id="2" x="137.93" y="330.66" angle="270.00" type="DEFAULT_VEHTYPE" speed="1.99" pos="7.09" lane="-2.0.00_0" slope="0.00"/>
        <vehicle id="3" x="378.88" y="2.00" angle="270.00" type="DEFAULT_VEHTYPE" speed="0.00" pos="5.10" lane="7.0.00_0" slope="0.00"/>
    </timestep>
    <timestep time="4.00">
        <vehicle id="0" x="2.07" y="36.57" angle="0.00" type="DEFAULT_VEHTYPE" speed="8.63" pos="25.41" lane="15.0.00_0" slope="0.00"/>
        <vehicle id="1" x="88.43" y="301.41" angle="179.98" type="DEFAULT_VEHTYPE" speed="5.34" pos="16.53" lane="-21.0.00_0" slope="0.00"/>
        <vehicle id="2" x="134.08" y="330.66" angle="270.00" type="DEFAULT_VEHTYPE" speed="3.84" pos="10.93" lane="-2.0.00_0" slope="0.00"/>
        <vehicle id="3" x="376.37" y="2.00" angle="270.00" type="DEFAULT_VEHTYPE" speed="2.51" pos="7.61" lane="7.0.00_0" slope="0.00"/>
        <vehicle id="4" x="92.45" y="213.87" angle="359.99" type="DEFAULT_VEHTYPE" speed="0.00" pos="5.10" lane="22.0.00_0" slope="0.00"/>
    </timestep>
    <timestep time="5.00">
        <vehicle id="0" x="2.07" y="47.23" angle="0.00" type="DEFAULT_VEHTYPE" speed="10.67" pos="36.07" lane="15.0.00_0" slope="0.00"/>
        <vehicle id="1" x="88.44" y="294.35" angle="179.98" type="DEFAULT_VEHTYPE" speed="7.07" pos="23.60" lane="-21.0.00_0" slope="0.00"/>
        <vehicle id="2" x="127.69" y="330.66" angle="270.00" type="DEFAULT_VEHTYPE" speed="6.39" pos="17.33" lane="-2.0.00_0" slope="0.00"/>
        <vehicle id="3" x="371.75" y="2.00" angle="270.00" type="DEFAULT_VEHTYPE" speed="4.62" pos="12.23" lane="7.0.00_0" slope="0.00"/>
        <vehicle id="4" x="92.45" y="215.59" angle="359.99" type="DEFAULT_VEHTYPE" speed="1.71" pos="6.81" lane="22.0.00_0" slope="0.00"/>
        <vehicle id="5" x="172.33" y="269.12" angle="89.99" type="DEFAULT_VEHTYPE" speed="0.00" pos="5.10" lane="-10.0.00_0" slope="0.00"/>
    </timestep>
    <timestep time="6.00">
        <vehicle id="0" x="2.08" y="60.32" angle="0.00" type="DEFAULT_VEHTYPE" speed="13.09" pos="49.16" lane="15.0.00_0" slope="0.00"/>
        <vehicle id="1" x="88.44" y="285.54" angle="179.98" type="DEFAULT_VEHTYPE" speed="8.81" pos="32.41" lane="-21.0.00_0" slope="0.00"/>
        <vehicle id="2" x="119.88" y="330.66" angle="270.00" type="DEFAULT_VEHTYPE" speed="7.81" pos="25.13" lane="-2.0.00_0" slope="0.00"/>
        <vehicle id="3" x="365.79" y="2.00" angle="270.00" type="DEFAULT_VEHTYPE" speed="5.96" pos="18.19" lane="7.0.00_0" slope="0.00"/>
        <vehicle id="4" x="92.45" y="219.49" angle="359.99" type="DEFAULT_VEHTYPE" speed="3.91" pos="10.72" lane="22.0.00_0" slope="0.00"/>
        <vehicle id="5" x="174.21" y="269.12" angle="89.99" type="DEFAULT_VEHTYPE" speed="1.88" pos="6.98" lane="-10.0.00_0" slope="0.00"/>
        <vehicle id="6" x="320.60" y="199.09" angle="270.03" type="DEFAULT_VEHTYPE" speed="0.00" pos="5.10" lane="4.0.00_0" slope="0.00"/>
    </timestep>
    <timestep time="7.00">
        <vehicle id="0" x="2.08" y="73.92" angle="0.00" type="DEFAULT_VEHTYPE" speed="13.60" pos="62.76" lane="15.0.00_0" slope="0.00"/>
        <vehicle id="2" x="110.43" y="330.66" angle="270.00" type="DEFAULT_VEHTYPE" speed="9.45" pos="34.59" lane="-2.0.00_0" slope="0.00"/>
        <vehicle id="3" x="358.20" y="2.00" angle="270.00" type="DEFAULT_VEHTYPE" speed="7.59" pos="25.78" lane="7.0.00_0" slope="0.00"/>
        <vehicle id="4" x="92.45" y="224.85" angle="359.99" type="DEFAULT_VEHTYPE" speed="5.36" pos="16.08" lane="22.0.00_0" slope="0.00"/>
        <vehicle id="5" x="178.03" y="269.12" angle="89.99" type="DEFAULT_VEHTYPE" speed="3.82" pos="10.80" lane="-10.0.00_0" slope="0.00"/>
        <vehicle id="6" x="318.28" y="199.09" angle="270.03" type="DEFAULT_VEHTYPE" speed="2.32" pos="7.42" lane="4.0.00_0" slope="0.00"/>
        <vehicle id="7" x="92.45" y="213.87" angle="359.99" type="DEFAULT_VEHTYPE" speed="0.00" pos="5.10" lane="22.0.00_0" slope="0.00"/>
    </timestep>
    <timestep time="8.00">
        <vehicle id="0" x="2.08" y="87.40" angle="0.00" type="DEFAULT_VEHTYPE" speed="13.48" pos="76.24" lane="15.0.00_0" slope="0.00"/>
        <vehicle id="2" x="100.90" y="330.42" angle="267.29" type="DEFAULT_VEHTYPE" speed="9.54" pos="1.86" lane=":77_1_0" slope="0.00"/>
        <vehicle id="3" x="349.24" y="2.00" angle="270.00" type="DEFAULT_VEHTYPE" speed="8.96" pos="34.74" lane="7.0.00_0" slope="0.00"/>
        <vehicle id="4" x="92.45" y="231.63" angle="359.99" type="DEFAULT_VEHTYPE" speed="6.78" pos="22.86" lane="22.0.00_0" slope="0.00"/>
        <vehicle id="5" x="184.28" y="269.12" angle="89.99" type="DEFAULT_VEHTYPE" speed="6.25" pos="17.05" lane="-10.0.00_0" slope="0.00"/>
        <vehicle id="6" x="313.49" y="199.10" angle="270.03" type="DEFAULT_VEHTYPE" speed="4.78" pos="12.21" lane="4.0.00_0" slope="0.00"/>
        <vehicle id="7" x="92.45" y="216.44" angle="359.99" type="DEFAULT_VEHTYPE" speed="2.57" pos="7.67" lane="22.0.00_0" slope="0.00"/>
        <vehicle id="8" x="2.07" y="16.26" angle="0.00" type="DEFAULT_VEHTYPE" speed="0.00" pos="5.10" lane="15.0.00_0" slope="0.00"/>
    </timestep>
    <timestep time="9.00">
        <vehicle id="0" x="2.07" y="101.50" angle="359.94" type="DEFAULT_VEHTYPE" speed="14.10" pos="90.34" lane="15.0.00_0" slope="0.00"/>
        <vehicle id="2" x="95.97" y="329.58" angle="260.33" type="DEFAULT_VEHTYPE" speed="5.04" pos="6.90" lane=":77_1_0" slope="0.00"/>
        <vehicle id="3" x="341.33" y="4.10" angle="291.84" type="DEFAULT_VEHTYPE" speed="8.37" pos="6.93" lane=":60_2_0" slope="0.00"/>
        <vehicle id="4" x="92.44" y="240.93" angle="359.99" type="DEFAULT_VEHTYPE" speed="9.30" pos="32.15" lane="22.0.00_0" slope="0.00"/>
        <vehicle id="5" x="192.32" y="269.12" angle="89.99" type="DEFAULT_VEHTYPE" speed="8.04" pos="25.09" lane="-10.0.00_0" slope="0.00"/>
        <vehicle id="6" x="306.98" y="199.10" angle="270.03" type="DEFAULT_VEHTYPE" speed="6.51" pos="18.72" lane="4.0.00_0" slope="0.00"/>
        <vehicle id="7" x="92.45" y="220.45" angle="359.99" type="DEFAULT_VEHTYPE" speed="4.01" pos="11.68" lane="22.0.00_0" slope="0.00"/>
        <vehicle id="8" x="2.07" y="17.61" angle="0.00" type="DEFAULT_VEHTYPE" speed="1.35" pos="6.45" lane="15.0.00_0" slope="0.00"/>
        <vehicle id="9" x="5.14" y="3.63" angle="288.52" type="DEFAULT_VEHTYPE" speed="0.00" pos="5.10" lane="-20.0.00_0" slope="0.00"/>
    </timestep>
    <timestep time="10.00">
        <vehicle id="0" x="2.07" y="116.05" angle="359.95" type="DEFAULT_VEHTYPE" speed="14.55" pos="104.89" lane="15.0.00_0" slope="0.00"/>
        <vehicle id="10" x="173.24" y="326.65" angle="90.00" type="DEFAULT_VEHTYPE" speed="0.00" pos="5.10" lane="1.0.00_0" slope="0.00"/>
        <vehicle id="2" x="90.86" y="325.77" angle="230.46" type="DEFAULT_VEHTYPE" speed="6.54" pos="4.57" lane=":77_6_0" slope="0.00"/>
        <vehicle id="3" x="338.78" y="11.09" angle="347.49" type="DEFAULT_VEHTYPE" speed="7.67" pos="14.59" lane=":60_2_0" slope="0.00"/>
        <vehicle id="4" x="92.44" y="251.89" angle="359.99" type="DEFAULT_VEHTYPE" speed="10.95" pos="43.11" lane="22.0.00_0" slope="0.00"/>
        <vehicle id="5" x="202.17" y="269.12" angle="89.99" type="DEFAULT_VEHTYPE" speed="9.85" pos="34.93" lane="-10.0.00_0" slope="0.00"/>
        <vehicle id="6" x="298.68" y="199.10" angle="270.03" type="DEFAULT_VEHTYPE" speed="8.30" pos="27.02" lane="4.0.00_0" slope="0.00"/>
        <vehicle id="7" x="92.45" y="226.66" angle="359.99" type="DEFAULT_VEHTYPE" speed="6.21" pos="17.89" lane="22.0.00_0" slope="0.00"/>
        <vehicle id="8" x="2.07" y="20.92" angle="0.00" type="DEFAULT_VEHTYPE" speed="3.31" pos="9.76" lane="15.0.00_0" slope="0.00"/>
        <vehicle id="9" x="3.76" y="5.25" angle="306.60" type="DEFAULT_VEHTYPE" speed="2.14" pos="7.24" lane="-20.0.00_0" slope="0.00"/>
    </timestep>
    <timestep time="11.00">
        <vehicle id="0" x="2.06" y="130.13" angle="0.00" type="DEFAULT_VEHTYPE" speed="14.07" pos="118.97" lane="15.0.00_0" slope="0.00"/>
        <vehicle id="10" x="175.49" y="326.65" angle="90.00" type="DEFAULT_VEHTYPE" speed="2.25" pos="7.35" lane="1.0.00_0" slope="0.00"/>
        <vehicle id="11" x="395.62" y="323.75" angle="350.47" type="DEFAULT_VEHTYPE" speed="0.00" pos="5.10" lane="11.0.00_0" slope="0.00"/>
        <vehicle id="2" x="88.46" y="318.10" angle="189.19" type="DEFAULT_VEHTYPE" speed="8.21" pos="12.77" lane=":77_6_0" slope="0.00"/>
        <vehicle id="3" x="338.77" y="19.40" angle="0.03" type="DEFAULT_VEHTYPE" speed="8.31" pos="8.24" lane="19.0.00_0" slope="0.00"/>
        <vehicle id="4" x="92.44" y="264.59" angle="360.00" type="DEFAULT_VEHTYPE" speed="12.70" pos="4.13" lane=":184_5_0" slope="0.00"/>
        <vehicle id="5" x="213.01" y="269.13" angle="89.99" type="DEFAULT_VEHTYPE" speed="10.84" pos="45.77" lane="-10.0.00_0" slope="0.00"/>
        <vehicle id="6" x="288.69" y="199.11" angle="270.03" type="DEFAULT_VEHTYPE" speed="9.99" pos="37.01" lane="4.0.00_0" slope="0.00"/>
        <vehicle id="7" x="92.45" y="234.33" angle="359.99" type="DEFAULT_VEHTYPE" speed="7.67" pos="25.56" lane="22.0.00_0" slope="0.00"/>
        <vehicle id="8" x="2.07" y="26.00" angle="0.00" type="DEFAULT_VEHTYPE" speed="5.08" pos="14.84" lane="15.0.00_0" slope="0.00"/>
        <vehicle id="9" x="2.35" y="8.48" angle="332.08" type="DEFAULT_VEHTYPE" speed="3.55" pos="10.79" lane="-20.0.00_0" slope="0.00"/>
    </timestep>
    <timestep time="12.00">
        <vehicle id="0" x="2.05" y="143.93" angle="0.00" type="DEFAULT_VEHTYPE" speed="13.80" pos="132.77" lane="15.0.00_0" slope="0.00"/>
        <vehicle id="10" x="180.21" y="326.65" angle="90.00" type="DEFAULT_VEHTYPE" speed="4.72" pos="12.07" lane="1.0.00_0" slope="0.00"/>
        <vehicle id="11" x="394.38" y="326.01" angle="337.67" type="DEFAULT_VEHTYPE" speed="2.60" pos="7.70" lane="11.0.00_0" slope="0.00"/>
        <vehicle id="12" x="379.55" y="330.59" angle="270.03" type="DEFAULT_VEHTYPE" speed="0.00" pos="5.10" lane="-0.0.00_0" slope="0.00"/>
        <vehicle id="2" x="88.43" y="308.38" angle="179.98" type="DEFAULT_VEHTYPE" speed="9.73" pos="9.56" lane="-21.0.00_0" slope="0.00"/>
        <vehicle id="3" x="338.78" y="30.22" angle="0.03" type="DEFAULT_VEHTYPE" speed="10.82" pos="19.06" lane="19.0.00_0" slope="0.00"/>
        <vehicle id="4" x="92.44" y="277.62" angle="0.00" type="DEFAULT_VEHTYPE" speed="13.03" pos="17.16" lane=":184_5_0" slope="0.00"/>
        <vehicle id="5" x="224.45" y="269.13" angle="89.99" type="DEFAULT_VEHTYPE" speed="11.44" pos="57.22" lane="-10.0.00_0" slope="0.00"/>
        <vehicle id="6" x="276.43" y="199.11" angle="270.03" type="DEFAULT_VEHTYPE" speed="12.26" pos="49.27" lane="4.0.00_0" slope="0.00"/>
        <vehicle id="7" x="92.44" y="244.30" angle="359.99" type="DEFAULT_VEHTYPE" speed="9.96" pos="35.52" lane="22.0.00_0" slope="0.00"/>
        <vehicle id="8" x="2.07" y="33.64" angle="0.00" type="DEFAULT_VEHTYPE" speed="7.64" pos="22.48" lane="15.0.00_0" slope="0.00"/>
        <vehicle id="9" x="2.07" y="13.55" angle="357.07" type="DEFAULT_VEHTYPE" speed="5.09" pos="2.39" lane="15.0.00_0" slope="0.00"/>
    </timestep>
    <timestep time="13.00">
        <vehicle id="0" x="2.04" y="158.33" angle="359.89" type="DEFAULT_VEHTYPE" speed="14.40" pos="147.17" lane="15.0.00_0" slope="0.00"/>
        <vehicle id="10" x="186.27" y="326.65" angle="90.00" type="DEFAULT_VEHTYPE" speed="6.06" pos="18.13" lane="1.0.00_0" slope="0.00"/>
        <vehicle id="11" x="390.87" y="329.20" angle="312.65" type="DEFAULT_VEHTYPE" speed="4.79" pos="12.49" lane="11.0.00_0" slope="0.00"/>
        <vehicle id="12" x="377.97" y="330.59" angle="270.03" type="DEFAULT_VEHTYPE" speed="1.58" pos="6.68" lane="-0.0.00_0" slope="0.00"/>
        <vehicle id="2" x="88.44" y="296.60" angle="179.98" type="DEFAULT_VEHTYPE" speed="11.78" pos="21.34" lane="-21.0.00_0" slope="0.00"/>
        <vehicle id="3" x="338.79" y="43.19" angle="0.03" type="DEFAULT_VEHTYPE" speed="12.97" pos="32.03" lane="19.0.00_0" slope="0.00"/>
        <vehicle id="4" x="92.44" y="291.21" angle="359.98" type="DEFAULT_VEHTYPE" speed="13.59" pos="8.75" lane="21.0.00_0" slope="0.00"/>
        <vehicle id="5" x="234.71" y="269.13" angle="89.99" type="DEFAULT_VEHTYPE" speed="10.26" pos="67.47" lane="-10.0.00_0" slope="0.00"/>
        <vehicle id="6" x="263.02" y="199.12" angle="270.03" type="DEFAULT_VEHTYPE" speed="13.41" pos="62.68" lane="4.0.00_0" slope="0.00"/>
        <vehicle id="7" x="92.44" y="256.48" angle="359.99" type="DEFAULT_VEHTYPE" speed="12.18" pos="47.70" lane="22.0.00_0" slope="0.00"/>
        <vehicle id="8" x="2.07" y="43.03" angle="0.00" type="DEFAULT_VEHTYPE" speed="9.39" pos="31.87" lane="15.0.00_0" slope="0.00"/>
        <vehicle id="9" x="2.07" y="20.43" angle="0.00" type="DEFAULT_VEHTYPE" speed="6.88" pos="9.27" lane="15.0.00_0" slope="0.00"/>
    </timestep>
    <timestep time="14.00">
        <vehicle id="0" x="2.04" y="172.70" angle="359.96" type="DEFAULT_VEHTYPE" speed="14.38" pos="161.54" lane="15.0.00_0" slope="0.00"/>
        <vehicle id="10" x="193.76" y="326.65" angle="90.00" type="DEFAULT_VEHTYPE" speed="7.48" pos="25.61" lane="1.0.00_0" slope="0.00"/>
        <vehicle id="11" x="386.95" y="330.46" angle="290.37" type="DEFAULT_VEHTYPE" speed="4.15" pos="0.46" lane=":11.0_0_0" slope="0.00"/>
        <vehicle id="12" x="374.01" y="330.60" angle="270.03" type="DEFAULT_VEHTYPE" speed="3.96" pos="10.64" lane="-0.0.00_0" slope="0.00"/>
        <vehicle id="14" x="106.58" y="129.47" angle="90.01" type="DEFAULT_VEHTYPE" speed="0.00" pos="5.10" lane="-12.0.00_0" slope="0.00"/>
        <vehicle id="2" x="88.44" y="284.96" angle="179.98" type="DEFAULT_VEHTYPE" speed="11.65" pos="32.99" lane="-21.0.00_0" slope="0.00"/>
        <vehicle id="3" x="338.80" y="57.01" angle="0.03" type="DEFAULT_VEHTYPE" speed="13.82" pos="45.85" lane="19.0.00_0" slope="0.00"/>
        <vehicle id="4" x="92.43" y="303.32" angle="359.98" type="DEFAULT_VEHTYPE" speed="12.12" pos="20.87" lane="21.0.00_0" slope="0.00"/>
        <vehicle id="5" x="245.78" y="269.13" angle="89.99" type="DEFAULT_VEHTYPE" speed="11.07" pos="78.54" lane="-10.0.00_0" slope="0.00"/>
        <vehicle id="6" x="248.88" y="199.13" angle="270.03" type="DEFAULT_VEHTYPE" speed="14.14" pos="76.82" lane="4.0.00_0" slope="0.00"/>
        <vehicle id="7" x="92.44" y="268.63" angle="0.00" type="DEFAULT_VEHTYPE" speed="12.15" pos="8.17" lane=":184_5_0" slope="0.00"/>
        <vehicle id="8" x="2.08" y="54.72" angle="0.03" type="DEFAULT_VEHTYPE" speed="11.69" pos="43.56" lane="15.0.00_0" slope="0.00"/>
        <vehicle id="9" x="2.07" y="28.90" angle="0.00" type="DEFAULT_VEHTYPE" speed="8.47" pos="17.74" lane="15.0.00_0" slope="0.00"/>
    </timestep>
    <timestep time="15.00">
        <vehicle id="0" x="2.03" y="187.05" angle="0.00" type="DEFAULT_VEHTYPE" speed="14.34" pos="175.89" lane="15.0.00_0" slope="0.00"/>
        <vehicle id="10" x="202.77" y="326.65" angle="90.00" type="DEFAULT_VEHTYPE" speed="9.01" pos="34.63" lane="1.0.00_0" slope="0.00"/>
        <vehicle id="11" x="383.15" y="330.59" angle="273.11" type="DEFAULT_VEHTYPE" speed="3.81" pos="1.50" lane="-0.0.00_0" slope="0.00"/>
        <vehicle id="12" x="368.45" y="330.60" angle="270.03" type="DEFAULT_VEHTYPE" speed="5.57" pos="16.20" lane="-0.0.00_0" slope="0.00"/>
        <vehicle id="14" x="108.50" y="129.47" angle="90.01" type="DEFAULT_VEHTYPE" speed="1.92" pos="7.02" lane="-12.0.00_0" slope="0.00"/>
        <vehicle id="15" x="74.34" y="330.65" angle="269.98" type="DEFAULT_VEHTYPE" speed="0.00" pos="5.10" lane="-3.0.00_0" slope="0.00"/>
        <vehicle id="2" x="89.12" y="277.58" angle="172.23" type="DEFAULT_VEHTYPE" speed="7.42" pos="4.92" lane=":184_1_0" slope="0.00"/>
        <vehicle id="3" x="338.80" y="71.83" angle="0.03" type="DEFAULT_VEHTYPE" speed="14.82" pos="60.67" lane="19.0.00_0" slope="0.00"/>
        <vehicle id="4" x="92.43" y="312.12" angle="359.98" type="DEFAULT_VEHTYPE" speed="8.80" pos="29.67" lane="21.0.00_0" slope="0.00"/>
        <vehicle id="5" x="256.52" y="269.13" angle="89.99" type="DEFAULT_VEHTYPE" speed="10.74" pos="89.28" lane="-10.0.00_0" slope="0.00"/>
        <vehicle id="6" x="235.47" y="199.13" angle="270.03" type="DEFAULT_VEHTYPE" speed="13.41" pos="90.23" lane="4.0.00_0" slope="0.00"/>
        <vehicle id="7" x="92.44" y="280.36" angle="0.00" type="DEFAULT_VEHTYPE" speed="11.73" pos="19.90" lane=":184_5_0" slope="0.00"/>
        <vehicle id="8" x="2.08" y="67.47" angle="0.00" type="DEFAULT_VEHTYPE" speed="12.75" pos="56.31" lane="15.0.00_0" slope="0.00"/>
        <vehicle id="9" x="2.07" y="38.96" angle="0.00" type="DEFAULT_VEHTYPE" speed="10.06" pos="27.80" lane="15.0.00_0" slope="0.00"/>
    </timestep>
    <timestep time="16.00">
        <vehicle id="0" x="2.02" y="201.74" angle="0.00" type="DEFAULT_VEHTYPE" speed="14.70" pos="190.58" lane="15.0.00_0" slope="0.00"/>
        <vehicle id="10" x="213.15" y="326.65" angle="90.00" type="DEFAULT_VEHTYPE" speed="10.38" pos="45.00" lane="1.0.00_0" slope="0.00"/>
        <vehicle id="11" x="377.15" y="330.59" angle="270.03" type="DEFAULT_VEHTYPE" speed="5.99" pos="7.50" lane="-0.0.00_0" slope="0.00"/>
        <vehicle id="12" x="360.63" y="330.60" angle="270.03" type="DEFAULT_VEHTYPE" speed="7.82" pos="24.02" lane="-0.0.00_0" slope="0.00"/>
        <vehicle id="14" x="112.14" y="129.47" angle="90.01" type="DEFAULT_VEHTYPE" speed="3.64" pos="10.66" lane="-12.0.00_0" slope="0.00"/>
        <vehicle id="15" x="72.45" y="330.65" angle="269.98" type="DEFAULT_VEHTYPE" speed="1.89" pos="6.99" lane="-3.0.00_0" slope="0.00"/>
        <vehicle id="16" x="338.85" y="148.06" angle="0.03" type="DEFAULT_VEHTYPE" speed="0.00" pos="5.10" lane="18.0.00_0" slope="0.00"/>
        <vehicle id="2" x="94.62" y="270.65" angle="130.33" type="DEFAULT_VEHTYPE" speed="9.24" pos="5.92" lane=":184_6_0" slope="0.00"/>
        <vehicle id="3" x="338.81" y="85.81" angle="0.03" type="DEFAULT_VEHTYPE" speed="13.98" pos="74.65" lane="19.0.00_0" slope="0.00"/>
        <vehicle id="4" x="92.43" y="316.42" angle="359.98" type="DEFAULT_VEHTYPE" speed="4.30" pos="33.97" lane="21.0.00_0" slope="0.00"/>
        <vehicle id="5" x="267.67" y="269.13" angle="89.99" type="DEFAULT_VEHTYPE" speed="11.15" pos="100.43" lane="-10.0.00_0" slope="0.00"/>
        <vehicle id="6" x="221.35" y="199.14" angle="270.03" type="DEFAULT_VEHTYPE" speed="14.12" pos="104.35" lane="4.0.00_0" slope="0.00"/>
        <vehicle id="7" x="92.44" y="291.74" angle="359.98" type="DEFAULT_VEHTYPE" speed="11.39" pos="9.28" lane="21.0.00_0" slope="0.00"/>
        <vehicle id="8" x="2.08" y="79.98" angle="0.00" type="DEFAULT_VEHTYPE" speed="12.51" pos="68.82" lane="15.0.00_0" slope="0.00"/>
        <vehicle id="9" x="2.08" y="50.34" angle="0.11" type="DEFAULT_VEHTYPE" speed="11.38" pos="39.18" lane="15.0.00_0" slope="0.00"/>
    </timestep>
    <timestep time="17.00">
        <vehicle id="0" x="2.01" y="215.78" angle="359.89" type="DEFAULT_VEHTYPE" speed="14.04" pos="204.62" lane="15.0.00_0" slope="0.00"/>
        <vehicle id="10" x="225.76" y="326.65" angle="90.00" type="DEFAULT_VEHTYPE" speed="12.61" pos="57.61" lane="1.0.00_0" slope="0.00"/>
        <vehicle id="11" x="369.77" y="330.60" angle="270.03" type="DEFAULT_VEHTYPE" speed="7.38" pos="14.88" lane="-0.0.00_0" slope="0.00"/>
        <vehicle id="12" x="350.67" y="330.61" angle="270.03" type="DEFAULT_VEHTYPE" speed="9.96" pos="33.98" lane="-0.0.00_0" slope="0.00"/>
        <vehicle id="13" x="92.44" y="287.56" angle="359.98" type="DEFAULT_VEHTYPE" speed="0.00" pos="5.10" lane="21.0.00_0" slope="0.00"/>
        <vehicle id="14" x="118.22" y="129.47" angle="90.01" type="DEFAULT_VEHTYPE" speed="6.08" pos="16.74" lane="-12.0.00_0" slope="0.00"/>
        <vehicle id="15" x="68.22" y="330.65" angle="269.98" type="DEFAULT_VEHTYPE" speed="4.23" pos="11.22" lane="-3.0.00_0" slope="0.00"/>
        <vehicle id="16" x="338.85" y="150.18" angle="0.03" type="DEFAULT_VEHTYPE" speed="2.12" pos="7.22" lane="18.0.00_0" slope="0.00"/>
        <vehicle id="17" x="139.92" y="330.66" angle="270.00" type="DEFAULT_VEHTYPE" speed="0.00" pos="5.10" lane="-2.0.00_0" slope="0.00"/>
        <vehicle id="2" x="103.58" y="269.11" angle="94.76" type="DEFAULT_VEHTYPE" speed="9.22" pos="2.13" lane="-9.0.00_0" slope="0.00"/>
        <vehicle id="3" x="338.82" y="99.92" angle="0.03" type="DEFAULT_VEHTYPE" speed="14.11" pos="88.76" lane="19.0.00_0" slope="0.00"/>
        <vehicle id="4" x="93.52" y="322.38" angle="12.79" type="DEFAULT_VEHTYPE" speed="6.16" pos="4.64" lane=":77_2_0" slope="0.00"/>
        <vehicle id="5" x="278.78" y="269.13" angle="89.99" type="DEFAULT_VEHTYPE" speed="11.11" pos="111.54" lane="-10.0.00_0" slope="0.00"/>
        <vehicle id="6" x="206.91" y="199.15" angle="270.03" type="DEFAULT_VEHTYPE" speed="14.44" pos="118.79" lane="4.0.00_0" slope="0.00"/>
        <vehicle id="7" x="92.43" y="301.90" angle="359.98" type="DEFAULT_VEHTYPE" speed="10.16" pos="19.44" lane="21.0.00_0" slope="0.00"/>
        <vehicle id="8" x="2.08" y="92.40" angle="0.00" type="DEFAULT_VEHTYPE" speed="12.41" pos="81.23" lane="15.0.00_0" slope="0.00"/>
        <vehicle id="9" x="2.08" y="62.24" angle="0.00" type="DEFAULT_VEHTYPE" speed="11.90" pos="51.08" lane="15.0.00_0" slope="0.00"/>
    </timestep>
    <timestep time="18.00">
        <vehicle id="0" x="2.01" y="229.67" angle="0.00" type="DEFAULT_VEHTYPE" speed="13.88" pos="218.51" lane="15.0.00_0" slope="0.00"/>
        <vehicle id="10" x="240.13" y="326.65" angle="90.00" type="DEFAULT_VEHTYPE" speed="14.37" pos="71.99" lane="1.0.00_0" slope="0.00"/>
        <vehicle id="11" x="361.07" y="330.60" angle="270.03" type="DEFAULT_VEHTYPE" speed="8.70" pos="23.58" lane="-0.0.00_0" slope="0.00"/>
        <vehicle id="12" x="344.06" y="330.03" angle="263.34" type="DEFAULT_VEHTYPE" speed="6.64" pos="4.27" lane=":43_1_0" slope="0.00"/>
        <vehicle id="13" x="92.44" y="289.33" angle="359.98" type="DEFAULT_VEHTYPE" speed="1.77" pos="6.87" lane="21.0.00_0" slope="0.00"/>
        <vehicle id="14" x="126.51" y="129.47" angle="90.01" type="DEFAULT_VEHTYPE" speed="8.28" pos="25.03" lane="-12.0.00_0" slope="0.00"/>
        <vehicle id="15" x="62.66" y="330.65" angle="269.98" type="DEFAULT_VEHTYPE" speed="5.56" pos="16.78" lane="-3.0.00_0" slope="0.00"/>
        <vehicle id="16" x="338.86" y="154.73" angle="0.03" type="DEFAULT_VEHTYPE" speed="4.55" pos="11.77" lane="18.0.00_0" slope="0.00"/>
        <vehicle id="17" x="137.75" y="330.66" angle="270.00" type="DEFAULT_VEHTYPE" speed="2.17" pos="7.27" lane="-2.0.00_0" slope="0.00"/>
        <vehicle id="18" x="172.33" y="269.12" angle="89.99" type="DEFAULT_VEHTYPE" speed="0.00" pos="5.10" lane="-10.0.00_0" slope="0.00"/>
        <vehicle id="2" x="114.35" y="269.11" angle="89.99" type="DEFAULT_VEHTYPE" speed="10.77" pos="12.90" lane="-9.0.00_0" slope="0.00"/>
        <vehicle id="3" x="338.83" y="114.36" angle="0.03" type="DEFAULT_VEHTYPE" speed="14.44" pos="103.20" lane="19.0.00_0" slope="0.00"/>
        <vehicle id="4" x="100.19" y="326.35" angle="70.99" type="DEFAULT_VEHTYPE" speed="8.15" pos="12.79" lane=":77_2_0" slope="0.00"/>
        <vehicle id="5" x="289.75" y="269.14" angle="89.99" type="DEFAULT_VEHTYPE" speed="10.97" pos="122.51" lane="-10.0.00_0" slope="0.00"/>
        <vehicle id="6" x="193.19" y="199.16" angle="270.03" type="DEFAULT_VEHTYPE" speed="13.72" pos="132.51" lane="4.0.00_0" slope="0.00"/>
        <vehicle id="7" x="92.43" y="310.50" angle="359.98" type="DEFAULT_VEHTYPE" speed="8.61" pos="28.05" lane="21.0.00_0" slope="0.00"/>
        <vehicle id="8" x="2.07" y="105.20" angle="0.00" type="DEFAULT_VEHTYPE" speed="12.81" pos="94.04" lane="15.0.00_0" slope="0.00"/>
        <vehicle id="9" x="2.08" y="73.16" angle="0.00" type="DEFAULT_VEHTYPE" speed="10.92" pos="62.00" lane="15.0.00_0" slope="0.00"/>
    </timestep>
    <timestep time="19.00">
        <vehicle id="0" x="2.00" y="244.07" angle="0.00" type="DEFAULT_VEHTYPE" speed="14.41" pos="232.91" lane="15.0.00_0" slope="0.00"/>
        <vehicle id="10" x="254.73" y="326.64" angle="90.00" type="DEFAULT_VEHTYPE" speed="14.59" pos="86.58" lane="1.0.00_0" slope="0.00"/>
        <vehicle id="11" x="353.32" y="330.61" angle="270.03" type="DEFAULT_VEHTYPE" speed="7.75" pos="31.33" lane="-0.0.00_0" slope="0.00"/>
        <vehicle id="12" x="337.25" y="325.75" angle="229.14" type="DEFAULT_VEHTYPE" speed="8.39" pos="4.36" lane=":43_6_0" slope="0.00"/>
        <vehicle id="13" x="92.44" y="293.55" angle="359.98" type="DEFAULT_VEHTYPE" speed="4.22" pos="11.10" lane="21.0.00_0" slope="0.00"/>
        <vehicle id="14" x="136.67" y="129.47" angle="90.01" type="DEFAULT_VEHTYPE" speed="10.16" pos="35.19" lane="-12.0.00_0" slope="0.00"/>
        <vehicle id="15" x="55.71" y="330.64" angle="269.98" type="DEFAULT_VEHTYPE" speed="6.95" pos="23.73" lane="-3.0.00_0" slope="0.00"/>
        <vehicle id="16" x="338.86" y="161.10" angle="0.03" type="DEFAULT_VEHTYPE" speed="6.38" pos="18.15" lane="18.0.00_0" slope="0.00"/>
        <vehicle id="17" x="133.63" y="330.66" angle="270.00" type="DEFAULT_VEHTYPE" speed="4.11" pos="11.38" lane="-2.0.00_0" slope="0.00"/>
        <vehicle id="18" x="173.97" y="269.12" angle="89.99" type="DEFAULT_VEHTYPE" speed="1.64" pos="6.74" lane="-10.0.00_0" slope="0.00"/>
        <vehicle id="19" x="334.87" y="179.84" angle="180.03" type="DEFAULT_VEHTYPE" speed="0.00" pos="5.10" lane="-18.0.00_0" slope="0.00"/>
        <vehicle id="2" x="126.77" y="269.12" angle="89.99" type="DEFAULT_VEHTYPE" speed="12.42" pos="25.32" lane="-9.0.00_0" slope="0.00"/>
        <vehicle id="3" x="338.84" y="128.62" angle="0.05" type="DEFAULT_VEHTYPE" speed="14.26" pos="9.17" lane=":94_2_0" slope="0.00"/>
        <vehicle id="4" x="107.53" y="326.66" angle="89.70" type="DEFAULT_VEHTYPE" speed="7.36" pos="4.78" lane="2.0.00_0" slope="0.00"/>
        <vehicle id="5" x="301.19" y="269.14" angle="89.99" type="DEFAULT_VEHTYPE" speed="11.44" pos="133.95" lane="-10.0.00_0" slope="0.00"/>
        <vehicle id="6" x="179.69" y="199.16" angle="270.03" type="DEFAULT_VEHTYPE" speed="13.50" pos="146.01" lane="4.0.00_0" slope="0.00"/>
        <vehicle id="7" x="92.43" y="315.69" angle="359.98" type="DEFAULT_VEHTYPE" speed="5.19" pos="33.24" lane="21.0.00_0" slope="0.00"/>
        <vehicle id="8" x="2.06" y="117.67" angle="359.89" type="DEFAULT_VEHTYPE" speed="12.47" pos="106.51" lane="15.0.00_0" slope="0.00"/>
        <vehicle id="9" x="2.08" y="84.07" angle="0.00" type="DEFAULT_VEHTYPE" speed="10.91" pos="72.91" lane="15.0.00_0" slope="0.00"/>
    </timestep>
    <timestep time="20.00">
        <vehicle id="0" x="2.01" y="257.67" angle="0.11" type="DEFAULT_VEHTYPE" speed="13.60" pos="246.51" lane="15.0.00_0" slope="0.00"/>
        <vehicle id="10" x="269.30" y="326.64" angle="90.00" type="DEFAULT_VEHTYPE" speed="14.57" pos="101.15" lane="1.0.00_0" slope="0.00"/>
        <vehicle id="12" x="334.95" y="316.93" angle="187.02" type="DEFAULT_VEHTYPE" speed="9.31" pos="0.89" lane="-16.0.00_0" slope="0.00"/>
        <vehicle id="13" x="92.44" y="299.86" angle="359.98" type="DEFAULT_VEHTYPE" speed="6.31" pos="17.41" lane="21.0.00_0" slope="0.00"/>
        <vehicle id="14" x="149.10" y="129.47" angle="90.01" type="DEFAULT_VEHTYPE" speed="12.43" pos="47.62" lane="-12.0.00_0" slope="0.00"/>
        <vehicle id="15" x="46.27" y="330.64" angle="269.98" type="DEFAULT_VEHTYPE" speed="9.44" pos="33.17" lane="-3.0.00_0" slope="0.00"/>
        <vehicle id="16" x="338.86" y="169.59" angle="0.03" type="DEFAULT_VEHTYPE" speed="8.49" pos="26.64" lane="18.0.00_0" slope="0.00"/>
        <vehicle id="17" x="127.27" y="330.66" angle="270.00" type="DEFAULT_VEHTYPE" speed="6.36" pos="17.75" lane="-2.0.00_0" slope="0.00"/>
        <vehicle id="18" x="176.93" y="269.12" angle="89.99" type="DEFAULT_VEHTYPE" speed="2.96" pos="9.70" lane="-10.0.00_0" slope="0.00"/>
        <vehicle id="19" x="334.87" y="178.13" angle="180.03" type="DEFAULT_VEHTYPE" speed="1.71" pos="6.81" lane="-18.0.00_0" slope="0.00"/>