<?xml version="1.0" encoding="UTF-8"?>

<!-- generated on Wed Aug 14 11:57:12 2019 by Eclipse SUMO Version 1.2.0
<configuration xmlns:xsi="http://www.w3.org/2001/XMLSchema-instance" xsi:noNamespaceSchemaLocation="http://sumo.dlr.de/xsd/sumoConfiguration.xsd">

    <input>
        <net-file value="Town01.net.xml"/>
        <route-files value="trips.trips.xml"/>
    </input>

    <output>
        <netstate-dump value="test.log"/>
        <fcd-output value="Town01_Car50_4.log"/>
    </output>

    <time>
        <begin value="0"/>
        <end value="10000"/>
    </time>

</configuration>
-->

<fcd-export xmlns:xsi="http://www.w3.org/2001/XMLSchema-instance" xsi:noNamespaceSchemaLocation="http://sumo.dlr.de/xsd/fcd_file.xsd">
    <timestep time="0.00">
        <vehicle id="0" x="5.14" y="3.63" angle="288.52" type="DEFAULT_VEHTYPE" speed="0.00" pos="5.10" lane="-20.0.00_0" slope="0.00"/>
    </timestep>
    <timestep time="1.00">
        <vehicle id="0" x="3.76" y="5.25" angle="306.60" type="DEFAULT_VEHTYPE" speed="2.14" pos="7.24" lane="-20.0.00_0" slope="0.00"/>
        <vehicle id="1" x="379.55" y="330.59" angle="270.03" type="DEFAULT_VEHTYPE" speed="0.00" pos="5.10" lane="-0.0.00_0" slope="0.00"/>
    </timestep>
    <timestep time="2.00">
        <vehicle id="0" x="2.35" y="8.48" angle="332.08" type="DEFAULT_VEHTYPE" speed="3.55" pos="10.79" lane="-20.0.00_0" slope="0.00"/>
        <vehicle id="1" x="377.97" y="330.59" angle="270.03" type="DEFAULT_VEHTYPE" speed="1.58" pos="6.68" lane="-0.0.00_0" slope="0.00"/>
        <vehicle id="2" x="74.34" y="330.65" angle="269.98" type="DEFAULT_VEHTYPE" speed="0.00" pos="5.10" lane="-3.0.00_0" slope="0.00"/>
    </timestep>
    <timestep time="3.00">
        <vehicle id="0" x="2.07" y="13.55" angle="357.07" type="DEFAULT_VEHTYPE" speed="5.09" pos="2.39" lane="15.0.00_0" slope="0.00"/>
        <vehicle id="1" x="374.01" y="330.60" angle="270.03" type="DEFAULT_VEHTYPE" speed="3.96" pos="10.64" lane="-0.0.00_0" slope="0.00"/>
        <vehicle id="2" x="72.45" y="330.65" angle="269.98" type="DEFAULT_VEHTYPE" speed="1.89" pos="6.99" lane="-3.0.00_0" slope="0.00"/>
        <vehicle id="3" x="88.46" y="115.18" angle="179.99" type="DEFAULT_VEHTYPE" speed="0.00" pos="5.10" lane="-24.0.00_0" slope="0.00"/>
    </timestep>
    <timestep time="4.00">
        <vehicle id="0" x="2.07" y="20.07" angle="0.00" type="DEFAULT_VEHTYPE" speed="6.52" pos="8.91" lane="15.0.00_0" slope="0.00"/>
        <vehicle id="1" x="368.45" y="330.60" angle="270.03" type="DEFAULT_VEHTYPE" speed="5.57" pos="16.20" lane="-0.0.00_0" slope="0.00"/>
        <vehicle id="2" x="68.22" y="330.65" angle="269.98" type="DEFAULT_VEHTYPE" speed="4.23" pos="11.22" lane="-3.0.00_0" slope="0.00"/>
        <vehicle id="3" x="88.46" y="113.51" angle="179.99" type="DEFAULT_VEHTYPE" speed="1.67" pos="6.77" lane="-24.0.00_0" slope="0.00"/>
        <vehicle id="4" x="5.14" y="3.63" angle="288.52" type="DEFAULT_VEHTYPE" speed="0.00" pos="5.10" lane="-20.0.00_0" slope="0.00"/>
    </timestep>
    <timestep time="5.00">
        <vehicle id="0" x="2.07" y="29.19" angle="0.00" type="DEFAULT_VEHTYPE" speed="9.12" pos="18.03" lane="15.0.00_0" slope="0.00"/>
        <vehicle id="1" x="360.63" y="330.60" angle="270.03" type="DEFAULT_VEHTYPE" speed="7.82" pos="24.02" lane="-0.0.00_0" slope="0.00"/>
        <vehicle id="2" x="62.66" y="330.65" angle="269.98" type="DEFAULT_VEHTYPE" speed="5.56" pos="16.78" lane="-3.0.00_0" slope="0.00"/>
        <vehicle id="3" x="88.46" y="109.96" angle="179.99" type="DEFAULT_VEHTYPE" speed="3.56" pos="10.32" lane="-24.0.00_0" slope="0.00"/>
        <vehicle id="4" x="4.05" y="4.82" angle="302.14" type="DEFAULT_VEHTYPE" speed="1.63" pos="6.73" lane="-20.0.00_0" slope="0.00"/>
        <vehicle id="5" x="154.12" y="312.80" angle="180.08" type="DEFAULT_VEHTYPE" speed="0.00" pos="5.10" lane="-25.0.00_0" slope="0.00"/>
    </timestep>
    <timestep time="6.00">
        <vehicle id="0" x="2.07" y="40.48" angle="0.00" type="DEFAULT_VEHTYPE" speed="11.29" pos="29.32" lane="15.0.00_0" slope="0.00"/>
        <vehicle id="1" x="350.60" y="330.61" angle="270.03" type="DEFAULT_VEHTYPE" speed="10.03" pos="34.05" lane="-0.0.00_0" slope="0.00"/>
        <vehicle id="2" x="55.71" y="330.64" angle="269.98" type="DEFAULT_VEHTYPE" speed="6.95" pos="23.73" lane="-3.0.00_0" slope="0.00"/>
        <vehicle id="3" x="88.46" y="104.55" angle="179.99" type="DEFAULT_VEHTYPE" speed="5.41" pos="15.73" lane="-24.0.00_0" slope="0.00"/>
        <vehicle id="4" x="2.47" y="8.00" angle="329.06" type="DEFAULT_VEHTYPE" speed="3.57" pos="10.30" lane="-20.0.00_0" slope="0.00"/>
        <vehicle id="5" x="154.12" y="310.70" angle="180.08" type="DEFAULT_VEHTYPE" speed="2.10" pos="7.20" lane="-25.0.00_0" slope="0.00"/>
        <vehicle id="6" x="106.55" y="269.11" angle="89.99" type="DEFAULT_VEHTYPE" speed="0.00" pos="5.10" lane="-9.0.00_0" slope="0.00"/>
    </timestep>
    <timestep time="7.00">
        <vehicle id="0" x="2.08" y="54.20" angle="0.06" type="DEFAULT_VEHTYPE" speed="13.72" pos="43.04" lane="15.0.00_0" slope="0.00"/>
        <vehicle id="1" x="338.43" y="330.61" angle="270.03" type="DEFAULT_VEHTYPE" speed="12.17" pos="9.86" lane=":43_0_0" slope="0.00"/>
        <vehicle id="2" x="46.27" y="330.64" angle="269.98" type="DEFAULT_VEHTYPE" speed="9.44" pos="33.17" lane="-3.0.00_0" slope="0.00"/>
        <vehicle id="3" x="88.46" y="97.67" angle="179.99" type="DEFAULT_VEHTYPE" speed="6.88" pos="22.61" lane="-24.0.00_0" slope="0.00"/>
        <vehicle id="4" x="2.07" y="13.66" angle="357.38" type="DEFAULT_VEHTYPE" speed="5.69" pos="2.50" lane="15.0.00_0" slope="0.00"/>
        <vehicle id="5" x="154.11" y="306.99" angle="180.08" type="DEFAULT_VEHTYPE" speed="3.71" pos="10.91" lane="-25.0.00_0" slope="0.00"/>
        <vehicle id="6" x="108.10" y="269.11" angle="89.99" type="DEFAULT_VEHTYPE" speed="1.55" pos="6.65" lane="-9.0.00_0" slope="0.00"/>
    </timestep>
    <timestep time="8.00">
        <vehicle id="0" x="2.08" y="68.36" angle="0.00" type="DEFAULT_VEHTYPE" speed="14.16" pos="57.20" lane="15.0.00_0" slope="0.00"/>
        <vehicle id="1" x="326.55" y="330.62" angle="270.03" type="DEFAULT_VEHTYPE" speed="11.87" pos="21.74" lane=":43_0_0" slope="0.00"/>
        <vehicle id="2" x="34.30" y="330.64" angle="269.98" type="DEFAULT_VEHTYPE" speed="11.98" pos="45.14" lane="-3.0.00_0" slope="0.00"/>
        <vehicle id="3" x="88.47" y="88.31" angle="179.99" type="DEFAULT_VEHTYPE" speed="9.36" pos="31.97" lane="-24.0.00_0" slope="0.00"/>
        <vehicle id="4" x="2.07" y="21.77" angle="0.00" type="DEFAULT_VEHTYPE" speed="8.11" pos="10.61" lane="15.0.00_0" slope="0.00"/>
        <vehicle id="5" x="154.11" y="300.93" angle="180.08" type="DEFAULT_VEHTYPE" speed="6.06" pos="16.97" lane="-25.0.00_0" slope="0.00"/>
        <vehicle id="6" x="111.29" y="269.11" angle="89.99" type="DEFAULT_VEHTYPE" speed="3.19" pos="9.84" lane="-9.0.00_0" slope="0.00"/>
        <vehicle id="8" x="391.20" y="5.22" angle="194.33" type="DEFAULT_VEHTYPE" speed="0.00" pos="5.10" lane="-14.0.00_0" slope="0.00"/>
    </timestep>
    <timestep time="9.00">
        <vehicle id="0" x="2.08" y="81.96" angle="0.00" type="DEFAULT_VEHTYPE" speed="13.60" pos="70.80" lane="15.0.00_0" slope="0.00"/>
        <vehicle id="1" x="314.44" y="330.63" angle="270.09" type="DEFAULT_VEHTYPE" speed="12.11" pos="11.25" lane="-1.0.00_0" slope="0.00"/>
        <vehicle id="2" x="20.77" y="330.63" angle="269.98" type="DEFAULT_VEHTYPE" speed="13.53" pos="58.67" lane="-3.0.00_0" slope="0.00"/>
        <vehicle id="3" x="88.47" y="77.05" angle="179.99" type="DEFAULT_VEHTYPE" speed="11.26" pos="43.24" lane="-24.0.00_0" slope="0.00"/>
        <vehicle id="4" x="2.07" y="31.23" angle="0.00" type="DEFAULT_VEHTYPE" speed="9.47" pos="20.07" lane="15.0.00_0" slope="0.00"/>
        <vehicle id="5" x="154.09" y="292.61" angle="180.08" type="DEFAULT_VEHTYPE" speed="8.32" pos="25.29" lane="-25.0.00_0" slope="0.00"/>
        <vehicle id="6" x="116.36" y="269.11" angle="89.99" type="DEFAULT_VEHTYPE" speed="5.06" pos="14.91" lane="-9.0.00_0" slope="0.00"/>
        <vehicle id="7" x="2.07" y="16.26" angle="0.00" type="DEFAULT_VEHTYPE" speed="0.00" pos="5.10" lane="15.0.00_0" slope="0.00"/>
        <vehicle id="8" x="390.33" y="4.17" angle="204.67" type="DEFAULT_VEHTYPE" speed="1.38" pos="6.48" lane="-14.0.00_0" slope="0.00"/>
        <vehicle id="9" x="158.09" y="287.51" angle="0.08" type="DEFAULT_VEHTYPE" speed="0.00" pos="5.10" lane="25.0.00_0" slope="0.00"/>
    </timestep>
    <timestep time="10.00">
        <vehicle id="0" x="2.08" y="96.06" angle="359.97" type="DEFAULT_VEHTYPE" speed="14.10" pos="84.90" lane="15.0.00_0" slope="0.00"/>
        <vehicle id="1" x="302.28" y="330.63" angle="270.00" type="DEFAULT_VEHTYPE" speed="12.16" pos="23.41" lane="-1.0.00_0" slope="0.00"/>
        <vehicle id="10" x="74.34" y="330.65" angle="269.98" type="DEFAULT_VEHTYPE" speed="0.00" pos="5.10" lane="-3.0.00_0" slope="0.00"/>
        <vehicle id="2" x="7.84" y="330.54" angle="268.91" type="DEFAULT_VEHTYPE" speed="13.03" pos="3.26" lane="13.0.00_0" slope="0.00"/>
        <vehicle id="3" x="88.47" y="63.19" angle="179.99" type="DEFAULT_VEHTYPE" speed="13.86" pos="57.09" lane="-24.0.00_0" slope="0.00"/>
        <vehicle id="4" x="2.07" y="42.05" angle="0.00" type="DEFAULT_VEHTYPE" speed="10.82" pos="30.89" lane="15.0.00_0" slope="0.00"/>
        <vehicle id="5" x="154.09" y="286.09" angle="180.08" type="DEFAULT_VEHTYPE" speed="6.52" pos="31.82" lane="-25.0.00_0" slope="0.00"/>
        <vehicle id="6" x="122.93" y="269.11" angle="89.99" type="DEFAULT_VEHTYPE" speed="6.58" pos="21.48" lane="-9.0.00_0" slope="0.00"/>
        <vehicle id="7" x="2.07" y="18.69" angle="0.00" type="DEFAULT_VEHTYPE" speed="2.43" pos="7.53" lane="15.0.00_0" slope="0.00"/>
        <vehicle id="8" x="388.05" y="2.73" angle="228.19" type="DEFAULT_VEHTYPE" speed="2.70" pos="9.18" lane="-14.0.00_0" slope="0.00"/>
        <vehicle id="9" x="158.09" y="289.71" angle="0.08" type="DEFAULT_VEHTYPE" speed="2.20" pos="7.30" lane="25.0.00_0" slope="0.00"/>
    </timestep>
    <timestep time="11.00">
        <vehicle id="0" x="2.07" y="110.14" angle="0.00" type="DEFAULT_VEHTYPE" speed="14.08" pos="98.98" lane="15.0.00_0" slope="0.00"/>
        <vehicle id="1" x="290.35" y="330.64" angle="270.00" type="DEFAULT_VEHTYPE" speed="11.94" pos="35.34" lane="-1.0.00_0" slope="0.00"/>
        <vehicle id="10" x="72.91" y="330.65" angle="269.98" type="DEFAULT_VEHTYPE" speed="1.43" pos="6.53" lane="-3.0.00_0" slope="0.00"/>
        <vehicle id="11" x="320.59" y="273.14" angle="269.99" type="DEFAULT_VEHTYPE" speed="0.00" pos="5.10" lane="10.0.00_0" slope="0.00"/>
        <vehicle id="2" x="-1.75" y="321.95" angle="204.96" type="DEFAULT_VEHTYPE" speed="13.77" pos="17.03" lane="13.0.00_0" slope="0.00"/>
        <vehicle id="3" x="88.47" y="48.24" angle="179.99" type="DEFAULT_VEHTYPE" speed="14.95" pos="72.04" lane="-24.0.00_0" slope="0.00"/>
        <vehicle id="4" x="2.08" y="54.82" angle="0.02" type="DEFAULT_VEHTYPE" speed="12.77" pos="43.66" lane="15.0.00_0" slope="0.00"/>
        <vehicle id="5" x="153.66" y="279.39" angle="184.91" type="DEFAULT_VEHTYPE" speed="6.73" pos="3.06" lane=":167_0_0" slope="0.00"/>
        <vehicle id="6" x="131.56" y="269.12" angle="89.99" type="DEFAULT_VEHTYPE" speed="8.62" pos="30.11" lane="-9.0.00_0" slope="0.00"/>
        <vehicle id="7" x="2.07" y="22.88" angle="0.00" type="DEFAULT_VEHTYPE" speed="4.20" pos="11.72" lane="15.0.00_0" slope="0.00"/>
        <vehicle id="8" x="384.02" y="2.00" angle="257.37" type="DEFAULT_VEHTYPE" speed="4.14" pos="0.29" lane=":7.14_0_0" slope="0.00"/>
        <vehicle id="9" x="158.10" y="293.93" angle="0.08" type="DEFAULT_VEHTYPE" speed="4.22" pos="11.52" lane="25.0.00_0" slope="0.00"/>
    </timestep>
    <timestep time="12.00">
        <vehicle id="0" x="2.06" y="123.95" angle="0.00" type="DEFAULT_VEHTYPE" speed="13.80" pos="112.79" lane="15.0.00_0" slope="0.00"/>
        <vehicle id="1" x="277.32" y="330.64" angle="270.00" type="DEFAULT_VEHTYPE" speed="13.02" pos="48.37" lane="-1.0.00_0" slope="0.00"/>
        <vehicle id="10" x="69.28" y="330.65" angle="269.98" type="DEFAULT_VEHTYPE" speed="3.63" pos="10.16" lane="-3.0.00_0" slope="0.00"/>
        <vehicle id="11" x="318.05" y="273.14" angle="269.99" type="DEFAULT_VEHTYPE" speed="2.54" pos="7.64" lane="10.0.00_0" slope="0.00"/>
        <vehicle id="12" x="172.33" y="269.12" angle="89.99" type="DEFAULT_VEHTYPE" speed="0.00" pos="5.10" lane="-10.0.00_0" slope="0.00"/>
        <vehicle id="2" x="-1.97" y="309.18" angle="180.00" type="DEFAULT_VEHTYPE" speed="12.88" pos="9.47" lane="-15.0.00_0" slope="0.00"/>
        <vehicle id="3" x="88.48" y="34.18" angle="179.99" type="DEFAULT_VEHTYPE" speed="14.06" pos="86.11" lane="-24.0.00_0" slope="0.00"/>
        <vehicle id="4" x="2.08" y="69.09" angle="0.00" type="DEFAULT_VEHTYPE" speed="14.27" pos="57.93" lane="15.0.00_0" slope="0.00"/>
        <vehicle id="5" x="150.68" y="274.74" angle="216.33" type="DEFAULT_VEHTYPE" speed="5.75" pos="8.82" lane=":167_0_0" slope="0.00"/>
        <vehicle id="6" x="142.30" y="269.12" angle="89.99" type="DEFAULT_VEHTYPE" speed="10.74" pos="40.85" lane="-9.0.00_0" slope="0.00"/>
        <vehicle id="7" x="2.07" y="29.35" angle="0.00" type="DEFAULT_VEHTYPE" speed="6.47" pos="18.19" lane="15.0.00_0" slope="0.00"/>
        <vehicle id="8" x="377.70" y="2.00" angle="270.00" type="DEFAULT_VEHTYPE" speed="6.32" pos="6.28" lane="7.0.00_0" slope="0.00"/>
        <vehicle id="9" x="158.11" y="300.73" angle="0.08" type="DEFAULT_VEHTYPE" speed="6.80" pos="18.32" lane="25.0.00_0" slope="0.00"/>
    </timestep>
    <timestep time="13.00">
        <vehicle id="0" x="2.05" y="137.82" angle="359.89" type="DEFAULT_VEHTYPE" speed="13.87" pos="126.66" lane="15.0.00_0" slope="0.00"/>
        <vehicle id="1" x="264.49" y="330.64" angle="270.00" type="DEFAULT_VEHTYPE" speed="12.83" pos="61.20" lane="-1.0.00_0" slope="0.00"/>
        <vehicle id="10" x="63.19" y="330.65" angle="269.98" type="DEFAULT_VEHTYPE" speed="6.09" pos="16.25" lane="-3.0.00_0" slope="0.00"/>
        <vehicle id="11" x="313.55" y="273.14" angle="269.99" type="DEFAULT_VEHTYPE" speed="4.50" pos="12.14" lane="10.0.00_0" slope="0.00"/>
        <vehicle id="12" x="174.21" y="269.12" angle="89.99" type="DEFAULT_VEHTYPE" speed="1.88" pos="6.98" lane="-10.0.00_0" slope="0.00"/>
        <vehicle id="13" x="334.87" y="179.84" angle="180.03" type="DEFAULT_VEHTYPE" speed="0.00" pos="5.10" lane="-18.0.00_0" slope="0.00"/>
        <vehicle id="2" x="-1.98" y="295.19" angle="180.00" type="DEFAULT_VEHTYPE" speed="13.99" pos="23.46" lane="-15.0.00_0" slope="0.00"/>
        <vehicle id="3" x="88.48" y="22.53" angle="179.99" type="DEFAULT_VEHTYPE" speed="11.66" pos="97.76" lane="-24.0.00_0" slope="0.00"/>
        <vehicle id="4" x="2.08" y="82.60" angle="0.00" type="DEFAULT_VEHTYPE" speed="13.50" pos="71.44" lane="15.0.00_0" slope="0.00"/>
        <vehicle id="5" x="144.59" y="273.12" angle="259.88" type="DEFAULT_VEHTYPE" speed="6.42" pos="0.46" lane="9.0.00_0" slope="0.00"/>
        <vehicle id="6" x="148.63" y="269.64" angle="84.00" type="DEFAULT_VEHTYPE" speed="6.37" pos="3.62" lane=":167_5_0" slope="0.00"/>
        <vehicle id="7" x="2.07" y="38.08" angle="0.00" type="DEFAULT_VEHTYPE" speed="8.72" pos="26.92" lane="15.0.00_0" slope="0.00"/>
        <vehicle id="8" x="368.87" y="2.00" angle="270.00" type="DEFAULT_VEHTYPE" speed="8.83" pos="15.11" lane="7.0.00_0" slope="0.00"/>
        <vehicle id="9" x="158.12" y="309.47" angle="0.08" type="DEFAULT_VEHTYPE" speed="8.74" pos="27.06" lane="25.0.00_0" slope="0.00"/>
    </timestep>
    <timestep time="14.00">
        <vehicle id="0" x="2.05" y="152.25" angle="0.00" type="DEFAULT_VEHTYPE" speed="14.43" pos="141.09" lane="15.0.00_0" slope="0.00"/>
        <vehicle id="1" x="251.77" y="330.64" angle="270.00" type="DEFAULT_VEHTYPE" speed="12.72" pos="73.92" lane="-1.0.00_0" slope="0.00"/>
        <vehicle id="10" x="55.51" y="330.64" angle="269.98" type="DEFAULT_VEHTYPE" speed="7.68" pos="23.93" lane="-3.0.00_0" slope="0.00"/>
        <vehicle id="11" x="307.21" y="273.14" angle="269.99" type="DEFAULT_VEHTYPE" speed="6.34" pos="18.48" lane="10.0.00_0" slope="0.00"/>
        <vehicle id="12" x="178.03" y="269.12" angle="89.99" type="DEFAULT_VEHTYPE" speed="3.82" pos="10.80" lane="-10.0.00_0" slope="0.00"/>
        <vehicle id="13" x="334.87" y="178.13" angle="180.03" type="DEFAULT_VEHTYPE" speed="1.71" pos="6.81" lane="-18.0.00_0" slope="0.00"/>
        <vehicle id="2" x="-1.98" y="281.23" angle="180.00" type="DEFAULT_VEHTYPE" speed="13.96" pos="37.42" lane="-15.0.00_0" slope="0.00"/>
        <vehicle id="3" x="88.48" y="15.37" angle="179.99" type="DEFAULT_VEHTYPE" speed="7.16" pos="104.92" lane="-24.0.00_0" slope="0.00"/>
        <vehicle id="4" x="2.08" y="95.89" angle="359.98" type="DEFAULT_VEHTYPE" speed="13.30" pos="84.73" lane="15.0.00_0" slope="0.00"/>
        <vehicle id="5" x="135.65" y="273.12" angle="269.99" type="DEFAULT_VEHTYPE" speed="8.94" pos="9.40" lane="9.0.00_0" slope="0.00"/>
        <vehicle id="6" x="155.77" y="274.05" angle="48.11" type="DEFAULT_VEHTYPE" speed="8.79" pos="4.40" lane=":167_6_0" slope="0.00"/>
        <vehicle id="7" x="2.07" y="49.02" angle="0.05" type="DEFAULT_VEHTYPE" speed="10.94" pos="37.86" lane="15.0.00_0" slope="0.00"/>
        <vehicle id="8" x="357.93" y="2.00" angle="270.00" type="DEFAULT_VEHTYPE" speed="10.94" pos="26.05" lane="7.0.00_0" slope="0.00"/>
        <vehicle id="9" x="158.13" y="315.59" angle="0.08" type="DEFAULT_VEHTYPE" speed="6.11" pos="33.18" lane="25.0.00_0" slope="0.00"/>
    </timestep>
    <timestep time="15.00">
        <vehicle id="0" x="2.04" y="166.69" angle="0.00" type="DEFAULT_VEHTYPE" speed="14.44" pos="155.53" lane="15.0.00_0" slope="0.00"/>
        <vehicle id="1" x="239.30" y="330.65" angle="270.10" type="DEFAULT_VEHTYPE" speed="12.47" pos="86.39" lane="-1.0.00_0" slope="0.00"/>
        <vehicle id="10" x="45.88" y="330.64" angle="269.98" type="DEFAULT_VEHTYPE" speed="9.62" pos="33.56" lane="-3.0.00_0" slope="0.00"/>
        <vehicle id="11" x="298.33" y="273.14" angle="269.99" type="DEFAULT_VEHTYPE" speed="8.88" pos="27.36" lane="10.0.00_0" slope="0.00"/>
        <vehicle id="12" x="184.28" y="269.12" angle="89.99" type="DEFAULT_VEHTYPE" speed="6.25" pos="17.05" lane="-10.0.00_0" slope="0.00"/>
        <vehicle id="13" x="334.86" y="173.89" angle="180.03" type="DEFAULT_VEHTYPE" speed="4.24" pos="11.05" lane="-18.0.00_0" slope="0.00"/>
        <vehicle id="14" x="172.33" y="269.12" angle="89.99" type="DEFAULT_VEHTYPE" speed="0.00" pos="5.10" lane="-10.0.00_0" slope="0.00"/>
        <vehicle id="15" x="107.85" y="326.66" angle="90.00" type="DEFAULT_VEHTYPE" speed="0.00" pos="5.10" lane="2.0.00_0" slope="0.00"/>
        <vehicle id="2" x="-1.99" y="267.81" angle="180.00" type="DEFAULT_VEHTYPE" speed="13.43" pos="50.84" lane="-15.0.00_0" slope="0.00"/>
        <vehicle id="3" x="87.92" y="7.29" angle="186.38" type="DEFAULT_VEHTYPE" speed="8.12" pos="4.06" lane=":195_0_0" slope="0.00"/>
        <vehicle id="4" x="2.07" y="109.20" angle="0.00" type="DEFAULT_VEHTYPE" speed="13.30" pos="98.04" lane="15.0.00_0" slope="0.00"/>
        <vehicle id="5" x="125.08" y="273.12" angle="269.99" type="DEFAULT_VEHTYPE" speed="10.57" pos="19.97" lane="9.0.00_0" slope="0.00"/>
        <vehicle id="6" x="158.08" y="282.96" angle="7.15" type="DEFAULT_VEHTYPE" speed="9.37" pos="0.55" lane="25.0.00_0" slope="0.00"/>
        <vehicle id="7" x="2.08" y="61.30" angle="0.00" type="DEFAULT_VEHTYPE" speed="12.28" pos="50.14" lane="15.0.00_0" slope="0.00"/>
        <vehicle id="8" x="346.16" y="2.00" angle="270.00" type="DEFAULT_VEHTYPE" speed="11.77" pos="1.63" lane=":60_3_0" slope="0.00"/>
        <vehicle id="9" x="158.74" y="321.59" angle="7.02" type="DEFAULT_VEHTYPE" speed="6.06" pos="3.74" lane=":26_2_0" slope="0.00"/>
    </timestep>
    <timestep time="16.00">
        <vehicle id="0" x="2.03" y="180.90" angle="0.00" type="DEFAULT_VEHTYPE" speed="14.21" pos="169.74" lane="15.0.00_0" slope="0.00"/>
        <vehicle id="1" x="226.90" y="330.65" angle="270.00" type="DEFAULT_VEHTYPE" speed="12.40" pos="98.79" lane="-1.0.00_0" slope="0.00"/>
        <vehicle id="10" x="34.19" y="330.64" angle="269.98" type="DEFAULT_VEHTYPE" speed="11.69" pos="45.25" lane="-3.0.00_0" slope="0.00"/>
        <vehicle id="11" x="287.82" y="273.14" angle="269.99" type="DEFAULT_VEHTYPE" speed="10.51" pos="37.87" lane="10.0.00_0" slope="0.00"/>
        <vehicle id="12" x="192.34" y="269.12" angle="89.99" type="DEFAULT_VEHTYPE" speed="8.06" pos="25.11" lane="-10.0.00_0" slope="0.00"/>
        <vehicle id="13" x="334.86" y="167.63" angle="180.03" type="DEFAULT_VEHTYPE" speed="6.26" pos="17.31" lane="-18.0.00_0" slope="0.00"/>
        <vehicle id="14" x="174.23" y="269.12" angle="89.99" type="DEFAULT_VEHTYPE" speed="1.90" pos="7.00" lane="-10.0.00_0" slope="0.00"/>
        <vehicle id="15" x="109.84" y="326.66" angle="90.00" type="DEFAULT_VEHTYPE" speed="1.99" pos="7.09" lane="2.0.00_0" slope="0.00"/>
        <vehicle id="16" x="396.41" y="15.17" angle="0.00" type="DEFAULT_VEHTYPE" speed="0.00" pos="5.10" lane="-8.0.00_0" slope="0.00"/>
        <vehicle id="2" x="-1.99" y="254.19" angle="180.04" type="DEFAULT_VEHTYPE" speed="13.62" pos="64.46" lane="-15.0.00_0" slope="0.00"/>
        <vehicle id="3" x="82.53" y="2.48" angle="238.04" type="DEFAULT_VEHTYPE" speed="7.59" pos="11.65" lane=":195_0_0" slope="0.00"/>
        <vehicle id="4" x="2.06" y="122.99" angle="0.00" type="DEFAULT_VEHTYPE" speed="13.79" pos="111.83" lane="15.0.00_0" slope="0.00"/>
        <vehicle id="5" x="114.59" y="273.11" angle="269.99" type="DEFAULT_VEHTYPE" speed="10.49" pos="30.46" lane="9.0.00_0" slope="0.00"/>
        <vehicle id="6" x="158.10" y="294.09" angle="0.08" type="DEFAULT_VEHTYPE" speed="11.13" pos="11.68" lane="25.0.00_0" slope="0.00"/>
        <vehicle id="7" x="2.08" y="72.92" angle="0.00" type="DEFAULT_VEHTYPE" speed="11.62" pos="61.76" lane="15.0.00_0" slope="0.00"/>
        <vehicle id="8" x="334.39" y="2.00" angle="270.00" type="DEFAULT_VEHTYPE" speed="11.77" pos="13.40" lane=":60_3_0" slope="0.00"/>
        <vehicle id="9" x="163.68" y="326.07" angle="53.65" type="DEFAULT_VEHTYPE" speed="6.90" pos="10.65" lane=":26_2_0" slope="0.00"/>
    </timestep>
    <timestep time="17.00">
        <vehicle id="0" x="2.02" y="195.01" angle="359.89" type="DEFAULT_VEHTYPE" speed="14.11" pos="183.85" lane="15.0.00_0" slope="0.00"/>
        <vehicle id="1" x="214.43" y="330.65" angle="270.00" type="DEFAULT_VEHTYPE" speed="12.47" pos="111.26" lane="-1.0.00_0" slope="0.00"/>
        <vehicle id="10" x="20.20" y="330.63" angle="269.98" type="DEFAULT_VEHTYPE" speed="13.99" pos="59.24" lane="-3.0.00_0" slope="0.00"/>
        <vehicle id="11" x="275.03" y="273.13" angle="269.99" type="DEFAULT_VEHTYPE" speed="12.79" pos="50.66" lane="10.0.00_0" slope="0.00"/>
        <vehicle id="12" x="202.90" y="269.12" angle="89.99" type="DEFAULT_VEHTYPE" speed="10.56" pos="35.67" lane="-10.0.00_0" slope="0.00"/>
        <vehicle id="13" x="334.86" y="159.78" angle="180.03" type="DEFAULT_VEHTYPE" speed="7.86" pos="25.17" lane="-18.0.00_0" slope="0.00"/>
        <vehicle id="14" x="177.44" y="269.12" angle="89.99" type="DEFAULT_VEHTYPE" speed="3.21" pos="10.21" lane="-10.0.00_0" slope="0.00"/>
        <vehicle id="15" x="113.32" y="326.66" angle="90.00" type="DEFAULT_VEHTYPE" speed="3.48" pos="10.57" lane="2.0.00_0" slope="0.00"/>
        <vehicle id="16" x="396.41" y="16.49" angle="0.00" type="DEFAULT_VEHTYPE" speed="1.32" pos="6.42" lane="-8.0.00_0" slope="0.00"/>
        <vehicle id="17" x="106.55" y="269.11" angle="89.99" type="DEFAULT_VEHTYPE" speed="0.00" pos="5.10" lane="-9.0.00_0" slope="0.00"/>
        <vehicle id="2" x="-2.00" y="240.35" angle="180.00" type="DEFAULT_VEHTYPE" speed="13.84" pos="78.30" lane="-15.0.00_0" slope="0.00"/>
        <vehicle id="3" x="74.94" y="2.03" angle="269.25" type="DEFAULT_VEHTYPE" speed="7.62" pos="4.53" lane="5.0.00_0" slope="0.00"/>
        <vehicle id="4" x="2.05" y="137.30" angle="359.89" type="DEFAULT_VEHTYPE" speed="14.31" pos="126.14" lane="15.0.00_0" slope="0.00"/>
        <vehicle id="5" x="105.89" y="273.11" angle="269.99" type="DEFAULT_VEHTYPE" speed="8.70" pos="39.16" lane="9.0.00_0" slope="0.00"/>
        <vehicle id="6" x="158.11" y="305.98" angle="0.08" type="DEFAULT_VEHTYPE" speed="11.89" pos="23.57" lane="25.0.00_0" slope="0.00"/>
        <vehicle id="7" x="2.08" y="84.39" angle="0.00" type="DEFAULT_VEHTYPE" speed="11.47" pos="73.23" lane="15.0.00_0" slope="0.00"/>
        <vehicle id="8" x="321.90" y="2.00" angle="270.00" type="DEFAULT_VEHTYPE" speed="12.49" pos="3.88" lane="6.0.00_0" slope="0.00"/>
        <vehicle id="9" x="170.06" y="326.65" angle="85.67" type="DEFAULT_VEHTYPE" speed="6.42" pos="1.92" lane="1.0.00_0" slope="0.00"/>
    </timestep>
    <timestep time="18.00">
        <vehicle id="0" x="2.02" y="209.51" angle="0.00" type="DEFAULT_VEHTYPE" speed="14.51" pos="198.35" lane="15.0.00_0" slope="0.00"/>
        <vehicle id="1" x="202.14" y="330.65" angle="270.00" type="DEFAULT_VEHTYPE" speed="12.29" pos="123.55" lane="-1.0.00_0" slope="0.00"/>
        <vehicle id="10" x="6.07" y="330.15" angle="264.51" type="DEFAULT_VEHTYPE" speed="14.27" pos="5.06" lane="13.0.00_0" slope="0.00"/>
        <vehicle id="11" x="261.48" y="273.13" angle="269.99" type="DEFAULT_VEHTYPE" speed="13.55" pos="64.21" lane="10.0.00_0" slope="0.00"/>
        <vehicle id="12" x="215.59" y="269.13" angle="89.99" type="DEFAULT_VEHTYPE" speed="12.68" pos="48.36" lane="-10.0.00_0" slope="0.00"/>
        <vehicle id="13" x="334.85" y="150.34" angle="180.03" type="DEFAULT_VEHTYPE" speed="9.44" pos="34.61" lane="-18.0.00_0" slope="0.00"/>
        <vehicle id="14" x="182.45" y="269.12" angle="89.99" type="DEFAULT_VEHTYPE" speed="5.01" pos="15.22" lane="-10.0.00_0" slope="0.00"/>
        <vehicle id="15" x="118.81" y="326.66" angle="90.00" type="DEFAULT_VEHTYPE" speed="5.49" pos="16.06" lane="2.0.00_0" slope="0.00"/>
        <vehicle id="16" x="396.41" y="20.31" angle="0.00" type="DEFAULT_VEHTYPE" speed="3.82" pos="10.24" lane="-8.0.00_0" slope="0.00"/>
        <vehicle id="17" x="108.59" y="269.11" angle="89.99" type="DEFAULT_VEHTYPE" speed="2.04" pos="7.14" lane="-9.0.00_0" slope="0.00"/>
        <vehicle id="18" x="334.83" y="114.35" angle="180.03" type="DEFAULT_VEHTYPE" speed="0.00" pos="5.10" lane="-19.0.00_0" slope="0.00"/>
        <vehicle id="2" x="-1.99" y="226.91" angle="179.93" type="DEFAULT_VEHTYPE" speed="13.44" pos="91.74" lane="-15.0.00_0" slope="0.00"/>
        <vehicle id="3" x="65.96" y="2.04" angle="270.03" type="DEFAULT_VEHTYPE" speed="8.98" pos="13.51" lane="5.0.00_0" slope="0.00"/>
        <vehicle id="4" x="2.05" y="150.63" angle="0.00" type="DEFAULT_VEHTYPE" speed="13.33" pos="139.47" lane="15.0.00_0" slope="0.00"/>
        <vehicle id="5" x="98.91" y="272.76" angle="265.94" type="DEFAULT_VEHTYPE" speed="7.01" pos="2.56" lane=":184_3_0" slope="0.00"/>
        <vehicle id="6" x="158.12" y="314.13" angle="0.08" type="DEFAULT_VEHTYPE" speed="8.15" pos="31.72" lane="25.0.00_0" slope="0.00"/>
        <vehicle id="7" x="2.08" y="96.38" angle="359.95" type="DEFAULT_VEHTYPE" speed="11.99" pos="85.22" lane="15.0.00_0" slope="0.00"/>
        <vehicle id="8" x="309.81" y="2.00" angle="270.00" type="DEFAULT_VEHTYPE" speed="12.09" pos="15.97" lane="6.0.00_0" slope="0.00"/>
        <vehicle id="9" x="178.73" y="326.65" angle="90.00" type="DEFAULT_VEHTYPE" speed="8.67" pos="10.59" lane="1.0.00_0" slope="0.00"/>
    </timestep>
    <timestep time="19.00">
        <vehicle id="0" x="2.01" y="223.67" angle="0.00" type="DEFAULT_VEHTYPE" speed="14.16" pos="212.51" lane="15.0.00_0" slope="0.00"/>
        <vehicle id="1" x="189.74" y="330.65" angle="270.00" type="DEFAULT_VEHTYPE" speed="12.40" pos="135.95" lane="-1.0.00_0" slope="0.00"/>
        <vehicle id="10" x="-1.97" y="318.93" angle="189.23" type="DEFAULT_VEHTYPE" speed="15.00" pos="20.06" lane="13.0.00_0" slope="0.00"/>
        <vehicle id="11" x="248.19" y="273.13" angle="269.99" type="DEFAULT_VEHTYPE" speed="13.29" pos="77.49" lane="10.0.00_0" slope="0.00"/>
        <vehicle id="12" x="229.74" y="269.13" angle="89.99" type="DEFAULT_VEHTYPE" speed="14.15" pos="62.51" lane="-10.0.00_0" slope="0.00"/>
        <vehicle id="13" x="334.74" y="142.15" angle="181.29" type="DEFAULT_VEHTYPE" speed="8.19" pos="0.81" lane=":94_0_0" slope="0.00"/>
        <vehicle id="14" x="189.62" y="269.12" angle="89.99" type="DEFAULT_VEHTYPE" speed="7.17" pos="22.39" lane="-10.0.00_0" slope="0.00"/>
        <vehicle id="15" x="125.79" y="326.66" angle="90.00" type="DEFAULT_VEHTYPE" speed="6.97" pos="23.03" lane="2.0.00_0" slope="0.00"/>
        <vehicle id="16" x="396.40" y="26.39" angle="359.89" type="DEFAULT_VEHTYPE" speed="6.09" pos="16.32" lane="-8.0.00_0" slope="0.00"/>
        <vehicle id="17" x="112.86" y="269.11" angle="89.99" type="DEFAULT_VEHTYPE" speed="4.27" pos="11.41" lane="-9.0.00_0" slope="0.00"/>
        <vehicle id="18" x="334.83" y="112.97" angle="180.03" type="DEFAULT_VEHTYPE" speed="1.38" pos="6.48" lane="-19.0.00_0" slope="0.00"/>
        <vehicle id="19" x="338.77" y="16.26" angle="0.03" type="DEFAULT_VEHTYPE" speed="0.00" pos="5.10" lane="19.0.00_0" slope="0.00"/>
        <vehicle id="2" x="-1.99" y="213.12" angle="180.00" type="DEFAULT_VEHTYPE" speed="13.79" pos="105.53" lane="-15.0.00_0" slope="0.00"/>
        <vehicle id="3" x="55.48" y="2.04" angle="270.03" type="DEFAULT_VEHTYPE" speed="10.48" pos="23.99" lane="5.0.00_0" slope="0.00"/>
        <vehicle id="4" x="2.04" y="163.94" angle="0.00" type="DEFAULT_VEHTYPE" speed="13.32" pos="152.78" lane="15.0.00_0" slope="0.00"/>
        <vehicle id="5" x="91.81" y="270.02" angle="241.64" type="DEFAULT_VEHTYPE" speed="7.76" pos="10.32" lane=":184_3_0" slope="0.00"/>