<?xml version="1.0" encoding="UTF-8"?>

<!-- generated on Wed Aug 14 12:01:28 2019 by Eclipse SUMO Version 1.2.0
<configuration xmlns:xsi="http://www.w3.org/2001/XMLSchema-instance" xsi:noNamespaceSchemaLocation="http://sumo.dlr.de/xsd/sumoConfiguration.xsd">

    <input>
        <net-file value="Town01.net.xml"/>
        <route-files value="trips.trips.xml"/>
    </input>

    <output>
        <netstate-dump value="test.log"/>
        <fcd-output value="Town01_Car200_4.log"/>
    </output>

    <time>
        <begin value="0"/>
        <end value="10000"/>
    </time>

</configuration>
-->

<fcd-export xmlns:xsi="http://www.w3.org/2001/XMLSchema-instance" xsi:noNamespaceSchemaLocation="http://sumo.dlr.de/xsd/fcd_file.xsd">
    <timestep time="0.00">
        <vehicle id="0" x="338.85" y="148.06" angle="0.03" type="DEFAULT_VEHTYPE" speed="0.00" pos="5.10" lane="18.0.00_0" slope="0.00"/>
    </timestep>
    <timestep time="1.00">
        <vehicle id="0" x="338.85" y="150.18" angle="0.03" type="DEFAULT_VEHTYPE" speed="2.12" pos="7.22" lane="18.0.00_0" slope="0.00"/>
        <vehicle id="1" x="172.33" y="269.12" angle="89.99" type="DEFAULT_VEHTYPE" speed="0.00" pos="5.10" lane="-10.0.00_0" slope="0.00"/>
    </timestep>
    <timestep time="2.00">
        <vehicle id="0" x="338.86" y="154.73" angle="0.03" type="DEFAULT_VEHTYPE" speed="4.55" pos="11.77" lane="18.0.00_0" slope="0.00"/>
        <vehicle id="1" x="174.21" y="269.12" angle="89.99" type="DEFAULT_VEHTYPE" speed="1.88" pos="6.98" lane="-10.0.00_0" slope="0.00"/>
        <vehicle id="2" x="3.17" y="323.51" angle="13.52" type="DEFAULT_VEHTYPE" speed="0.00" pos="5.10" lane="-13.0.00_0" slope="0.00"/>
    </timestep>
    <timestep time="3.00">
        <vehicle id="0" x="338.86" y="161.10" angle="0.03" type="DEFAULT_VEHTYPE" speed="6.38" pos="18.15" lane="18.0.00_0" slope="0.00"/>
        <vehicle id="1" x="178.03" y="269.12" angle="89.99" type="DEFAULT_VEHTYPE" speed="3.82" pos="10.80" lane="-10.0.00_0" slope="0.00"/>
        <vehicle id="2" x="4.51" y="324.95" angle="29.45" type="DEFAULT_VEHTYPE" speed="1.98" pos="7.08" lane="-13.0.00_0" slope="0.00"/>
        <vehicle id="3" x="5.14" y="3.63" angle="288.52" type="DEFAULT_VEHTYPE" speed="0.00" pos="5.10" lane="-20.0.00_0" slope="0.00"/>
    </timestep>
    <timestep time="4.00">
        <vehicle id="0" x="338.86" y="169.59" angle="0.03" type="DEFAULT_VEHTYPE" speed="8.49" pos="26.64" lane="18.0.00_0" slope="0.00"/>
        <vehicle id="1" x="184.28" y="269.12" angle="89.99" type="DEFAULT_VEHTYPE" speed="6.25" pos="17.05" lane="-10.0.00_0" slope="0.00"/>
        <vehicle id="2" x="8.32" y="326.55" angle="64.56" type="DEFAULT_VEHTYPE" speed="4.19" pos="11.27" lane="-13.0.00_0" slope="0.00"/>
        <vehicle id="3" x="3.76" y="5.25" angle="306.60" type="DEFAULT_VEHTYPE" speed="2.14" pos="7.24" lane="-20.0.00_0" slope="0.00"/>
        <vehicle id="4" x="15.32" y="-1.93" angle="90.03" type="DEFAULT_VEHTYPE" speed="0.00" pos="5.10" lane="-5.0.00_0" slope="0.00"/>
    </timestep>
    <timestep time="5.00">
        <vehicle id="0" x="338.87" y="180.55" angle="0.03" type="DEFAULT_VEHTYPE" speed="10.96" pos="37.60" lane="18.0.00_0" slope="0.00"/>
        <vehicle id="1" x="192.32" y="269.12" angle="89.99" type="DEFAULT_VEHTYPE" speed="8.04" pos="25.09" lane="-10.0.00_0" slope="0.00"/>
        <vehicle id="2" x="13.74" y="326.63" angle="89.65" type="DEFAULT_VEHTYPE" speed="5.52" pos="2.65" lane="3.0.00_0" slope="0.00"/>
        <vehicle id="3" x="2.35" y="8.48" angle="332.08" type="DEFAULT_VEHTYPE" speed="3.55" pos="10.79" lane="-20.0.00_0" slope="0.00"/>
        <vehicle id="4" x="17.53" y="-1.93" angle="90.03" type="DEFAULT_VEHTYPE" speed="2.21" pos="7.31" lane="-5.0.00_0" slope="0.00"/>
        <vehicle id="5" x="74.37" y="2.03" angle="270.03" type="DEFAULT_VEHTYPE" speed="0.00" pos="5.10" lane="5.0.00_0" slope="0.00"/>
    </timestep>
    <timestep time="6.00">
        <vehicle id="0" x="338.31" y="189.14" angle="353.61" type="DEFAULT_VEHTYPE" speed="8.63" pos="4.24" lane=":139_3_0" slope="0.00"/>
        <vehicle id="1" x="202.17" y="269.12" angle="89.99" type="DEFAULT_VEHTYPE" speed="9.85" pos="34.93" lane="-10.0.00_0" slope="0.00"/>
        <vehicle id="2" x="20.64" y="326.63" angle="89.98" type="DEFAULT_VEHTYPE" speed="6.90" pos="9.55" lane="3.0.00_0" slope="0.00"/>
        <vehicle id="3" x="2.07" y="13.55" angle="357.07" type="DEFAULT_VEHTYPE" speed="5.09" pos="2.39" lane="15.0.00_0" slope="0.00"/>
        <vehicle id="4" x="22.03" y="-1.94" angle="90.03" type="DEFAULT_VEHTYPE" speed="4.51" pos="11.81" lane="-5.0.00_0" slope="0.00"/>
        <vehicle id="5" x="73.01" y="2.03" angle="270.03" type="DEFAULT_VEHTYPE" speed="1.36" pos="6.46" lane="5.0.00_0" slope="0.00"/>
        <vehicle id="6" x="338.89" y="213.13" angle="0.03" type="DEFAULT_VEHTYPE" speed="0.00" pos="5.10" lane="17.0.00_0" slope="0.00"/>
    </timestep>
    <timestep time="7.00">
        <vehicle id="0" x="333.65" y="196.79" angle="317.90" type="DEFAULT_VEHTYPE" speed="9.36" pos="4.95" lane=":139_6_0" slope="0.00"/>
        <vehicle id="1" x="213.91" y="269.13" angle="89.99" type="DEFAULT_VEHTYPE" speed="11.74" pos="46.68" lane="-10.0.00_0" slope="0.00"/>
        <vehicle id="2" x="30.05" y="326.64" angle="89.98" type="DEFAULT_VEHTYPE" speed="9.42" pos="18.96" lane="3.0.00_0" slope="0.00"/>
        <vehicle id="3" x="2.07" y="20.07" angle="0.00" type="DEFAULT_VEHTYPE" speed="6.52" pos="8.91" lane="15.0.00_0" slope="0.00"/>
        <vehicle id="4" x="28.94" y="-1.94" angle="90.03" type="DEFAULT_VEHTYPE" speed="6.90" pos="18.72" lane="-5.0.00_0" slope="0.00"/>
        <vehicle id="5" x="70.15" y="2.04" angle="270.03" type="DEFAULT_VEHTYPE" speed="2.86" pos="9.32" lane="5.0.00_0" slope="0.00"/>
        <vehicle id="6" x="338.89" y="215.62" angle="0.03" type="DEFAULT_VEHTYPE" speed="2.49" pos="7.59" lane="17.0.00_0" slope="0.00"/>
        <vehicle id="7" x="172.33" y="269.12" angle="89.99" type="DEFAULT_VEHTYPE" speed="0.00" pos="5.10" lane="-10.0.00_0" slope="0.00"/>
    </timestep>
    <timestep time="8.00">
        <vehicle id="0" x="324.57" y="199.09" angle="276.74" type="DEFAULT_VEHTYPE" speed="9.57" pos="1.13" lane="4.0.00_0" slope="0.00"/>
        <vehicle id="1" x="226.85" y="269.13" angle="89.99" type="DEFAULT_VEHTYPE" speed="12.93" pos="59.61" lane="-10.0.00_0" slope="0.00"/>
        <vehicle id="2" x="41.82" y="326.64" angle="89.98" type="DEFAULT_VEHTYPE" speed="11.77" pos="30.73" lane="3.0.00_0" slope="0.00"/>
        <vehicle id="3" x="2.07" y="29.19" angle="0.00" type="DEFAULT_VEHTYPE" speed="9.12" pos="18.03" lane="15.0.00_0" slope="0.00"/>
        <vehicle id="4" x="37.53" y="-1.95" angle="90.03" type="DEFAULT_VEHTYPE" speed="8.59" pos="27.31" lane="-5.0.00_0" slope="0.00"/>
        <vehicle id="5" x="64.74" y="2.04" angle="270.03" type="DEFAULT_VEHTYPE" speed="5.41" pos="14.73" lane="5.0.00_0" slope="0.00"/>
        <vehicle id="6" x="338.90" y="219.98" angle="0.03" type="DEFAULT_VEHTYPE" speed="4.36" pos="11.95" lane="17.0.00_0" slope="0.00"/>
        <vehicle id="7" x="173.65" y="269.12" angle="89.99" type="DEFAULT_VEHTYPE" speed="1.32" pos="6.42" lane="-10.0.00_0" slope="0.00"/>
        <vehicle id="8" x="392.43" y="313.66" angle="180.07" type="DEFAULT_VEHTYPE" speed="0.00" pos="5.10" lane="8.0.00_0" slope="0.00"/>
    </timestep>
    <timestep time="9.00">
        <vehicle id="0" x="312.68" y="199.10" angle="270.03" type="DEFAULT_VEHTYPE" speed="11.89" pos="13.02" lane="4.0.00_0" slope="0.00"/>
        <vehicle id="1" x="239.40" y="269.13" angle="89.99" type="DEFAULT_VEHTYPE" speed="12.56" pos="72.17" lane="-10.0.00_0" slope="0.00"/>
        <vehicle id="2" x="55.46" y="326.64" angle="89.98" type="DEFAULT_VEHTYPE" speed="13.65" pos="44.37" lane="3.0.00_0" slope="0.00"/>
        <vehicle id="3" x="2.07" y="40.48" angle="0.00" type="DEFAULT_VEHTYPE" speed="11.29" pos="29.32" lane="15.0.00_0" slope="0.00"/>
        <vehicle id="4" x="47.83" y="-1.95" angle="90.03" type="DEFAULT_VEHTYPE" speed="10.31" pos="37.61" lane="-5.0.00_0" slope="0.00"/>
        <vehicle id="5" x="57.27" y="2.04" angle="270.03" type="DEFAULT_VEHTYPE" speed="7.47" pos="22.20" lane="5.0.00_0" slope="0.00"/>
        <vehicle id="6" x="338.90" y="226.88" angle="0.03" type="DEFAULT_VEHTYPE" speed="6.90" pos="18.85" lane="17.0.00_0" slope="0.00"/>
        <vehicle id="7" x="176.76" y="269.12" angle="89.99" type="DEFAULT_VEHTYPE" speed="3.11" pos="9.53" lane="-10.0.00_0" slope="0.00"/>
        <vehicle id="8" x="392.43" y="311.25" angle="180.11" type="DEFAULT_VEHTYPE" speed="2.41" pos="7.51" lane="8.0.00_0" slope="0.00"/>
        <vehicle id="9" x="338.89" y="213.13" angle="0.03" type="DEFAULT_VEHTYPE" speed="0.00" pos="5.10" lane="17.0.00_0" slope="0.00"/>
    </timestep>
    <timestep time="10.00">
        <vehicle id="0" x="298.33" y="199.10" angle="270.03" type="DEFAULT_VEHTYPE" speed="14.35" pos="27.37" lane="4.0.00_0" slope="0.00"/>
        <vehicle id="1" x="252.05" y="269.13" angle="89.99" type="DEFAULT_VEHTYPE" speed="12.64" pos="84.81" lane="-10.0.00_0" slope="0.00"/>
        <vehicle id="10" x="92.45" y="213.87" angle="359.99" type="DEFAULT_VEHTYPE" speed="0.00" pos="5.10" lane="22.0.00_0" slope="0.00"/>
        <vehicle id="2" x="68.27" y="326.65" angle="89.98" type="DEFAULT_VEHTYPE" speed="12.80" pos="57.18" lane="3.0.00_0" slope="0.00"/>
        <vehicle id="3" x="2.08" y="54.20" angle="0.06" type="DEFAULT_VEHTYPE" speed="13.72" pos="43.04" lane="15.0.00_0" slope="0.00"/>
        <vehicle id="4" x="59.88" y="-1.96" angle="90.03" type="DEFAULT_VEHTYPE" speed="12.05" pos="49.66" lane="-5.0.00_0" slope="0.00"/>
        <vehicle id="5" x="47.38" y="2.05" angle="270.03" type="DEFAULT_VEHTYPE" speed="9.89" pos="32.09" lane="5.0.00_0" slope="0.00"/>
        <vehicle id="6" x="338.91" y="236.00" angle="0.03" type="DEFAULT_VEHTYPE" speed="9.12" pos="27.97" lane="17.0.00_0" slope="0.00"/>
        <vehicle id="7" x="182.04" y="269.12" angle="89.99" type="DEFAULT_VEHTYPE" speed="5.28" pos="14.80" lane="-10.0.00_0" slope="0.00"/>
        <vehicle id="8" x="392.43" y="307.37" angle="180.00" type="DEFAULT_VEHTYPE" speed="3.87" pos="11.39" lane="8.0.00_0" slope="0.00"/>
        <vehicle id="9" x="338.89" y="215.57" angle="0.03" type="DEFAULT_VEHTYPE" speed="2.44" pos="7.54" lane="17.0.00_0" slope="0.00"/>
    </timestep>
    <timestep time="11.00">
        <vehicle id="0" x="284.48" y="199.11" angle="270.03" type="DEFAULT_VEHTYPE" speed="13.85" pos="41.22" lane="4.0.00_0" slope="0.00"/>
        <vehicle id="1" x="264.50" y="269.13" angle="89.99" type="DEFAULT_VEHTYPE" speed="12.46" pos="97.27" lane="-10.0.00_0" slope="0.00"/>
        <vehicle id="10" x="92.45" y="215.59" angle="359.99" type="DEFAULT_VEHTYPE" speed="1.71" pos="6.81" lane="22.0.00_0" slope="0.00"/>
        <vehicle id="11" x="334.87" y="179.84" angle="180.03" type="DEFAULT_VEHTYPE" speed="0.00" pos="5.10" lane="-18.0.00_0" slope="0.00"/>
        <vehicle id="2" x="82.03" y="326.65" angle="89.98" type="DEFAULT_VEHTYPE" speed="13.77" pos="2.59" lane=":77_5_0" slope="0.00"/>
        <vehicle id="3" x="2.08" y="68.67" angle="0.00" type="DEFAULT_VEHTYPE" speed="14.47" pos="57.51" lane="15.0.00_0" slope="0.00"/>
        <vehicle id="4" x="72.89" y="-1.97" angle="90.03" type="DEFAULT_VEHTYPE" speed="13.01" pos="62.67" lane="-5.0.00_0" slope="0.00"/>
        <vehicle id="5" x="35.95" y="2.06" angle="270.03" type="DEFAULT_VEHTYPE" speed="11.43" pos="43.52" lane="5.0.00_0" slope="0.00"/>
        <vehicle id="6" x="338.91" y="247.36" angle="0.03" type="DEFAULT_VEHTYPE" speed="11.36" pos="39.33" lane="17.0.00_0" slope="0.00"/>
        <vehicle id="7" x="189.81" y="269.12" angle="89.99" type="DEFAULT_VEHTYPE" speed="7.78" pos="22.58" lane="-10.0.00_0" slope="0.00"/>
        <vehicle id="8" x="392.42" y="301.07" angle="180.06" type="DEFAULT_VEHTYPE" speed="6.30" pos="17.69" lane="8.0.00_0" slope="0.00"/>
        <vehicle id="9" x="338.90" y="219.63" angle="0.03" type="DEFAULT_VEHTYPE" speed="4.06" pos="11.60" lane="17.0.00_0" slope="0.00"/>
    </timestep>
    <timestep time="12.00">
        <vehicle id="0" x="270.56" y="199.12" angle="270.03" type="DEFAULT_VEHTYPE" speed="13.92" pos="55.14" lane="4.0.00_0" slope="0.00"/>
        <vehicle id="1" x="276.58" y="269.13" angle="89.99" type="DEFAULT_VEHTYPE" speed="12.07" pos="109.34" lane="-10.0.00_0" slope="0.00"/>
        <vehicle id="10" x="92.45" y="219.49" angle="359.99" type="DEFAULT_VEHTYPE" speed="3.91" pos="10.72" lane="22.0.00_0" slope="0.00"/>
        <vehicle id="11" x="334.87" y="178.13" angle="180.03" type="DEFAULT_VEHTYPE" speed="1.71" pos="6.81" lane="-18.0.00_0" slope="0.00"/>
        <vehicle id="12" x="106.58" y="129.47" angle="90.01" type="DEFAULT_VEHTYPE" speed="0.00" pos="5.10" lane="-12.0.00_0" slope="0.00"/>
        <vehicle id="2" x="95.68" y="326.66" angle="89.98" type="DEFAULT_VEHTYPE" speed="13.65" pos="16.24" lane=":77_5_0" slope="0.00"/>
        <vehicle id="3" x="2.08" y="83.53" angle="0.00" type="DEFAULT_VEHTYPE" speed="14.86" pos="72.37" lane="15.0.00_0" slope="0.00"/>
        <vehicle id="4" x="81.44" y="-1.68" angle="86.71" type="DEFAULT_VEHTYPE" speed="8.57" pos="1.99" lane=":195_5_0" slope="0.00"/>
        <vehicle id="5" x="24.58" y="2.06" angle="270.03" type="DEFAULT_VEHTYPE" speed="11.37" pos="54.89" lane="5.0.00_0" slope="0.00"/>
        <vehicle id="6" x="338.92" y="258.62" angle="0.03" type="DEFAULT_VEHTYPE" speed="11.26" pos="50.59" lane="17.0.00_0" slope="0.00"/>
        <vehicle id="7" x="199.67" y="269.12" angle="89.99" type="DEFAULT_VEHTYPE" speed="9.85" pos="32.43" lane="-10.0.00_0" slope="0.00"/>
        <vehicle id="8" x="392.41" y="292.65" angle="180.03" type="DEFAULT_VEHTYPE" speed="8.43" pos="26.11" lane="8.0.00_0" slope="0.00"/>
        <vehicle id="9" x="338.90" y="225.94" angle="0.03" type="DEFAULT_VEHTYPE" speed="6.31" pos="17.91" lane="17.0.00_0" slope="0.00"/>
    </timestep>
    <timestep time="13.00">
        <vehicle id="0" x="256.75" y="199.12" angle="270.03" type="DEFAULT_VEHTYPE" speed="13.81" pos="68.95" lane="4.0.00_0" slope="0.00"/>
        <vehicle id="1" x="288.33" y="269.14" angle="89.99" type="DEFAULT_VEHTYPE" speed="11.75" pos="121.09" lane="-10.0.00_0" slope="0.00"/>
        <vehicle id="10" x="92.45" y="224.85" angle="359.99" type="DEFAULT_VEHTYPE" speed="5.36" pos="16.08" lane="22.0.00_0" slope="0.00"/>
        <vehicle id="11" x="334.86" y="173.89" angle="180.03" type="DEFAULT_VEHTYPE" speed="4.24" pos="11.05" lane="-18.0.00_0" slope="0.00"/>
        <vehicle id="12" x="108.50" y="129.47" angle="90.01" type="DEFAULT_VEHTYPE" speed="1.92" pos="7.02" lane="-12.0.00_0" slope="0.00"/>
        <vehicle id="13" x="334.83" y="114.35" angle="180.03" type="DEFAULT_VEHTYPE" speed="0.00" pos="5.10" lane="-19.0.00_0" slope="0.00"/>
        <vehicle id="2" x="109.62" y="326.66" angle="90.00" type="DEFAULT_VEHTYPE" speed="13.95" pos="6.87" lane="2.0.00_0" slope="0.00"/>
        <vehicle id="3" x="2.07" y="97.45" angle="359.89" type="DEFAULT_VEHTYPE" speed="13.91" pos="86.29" lane="15.0.00_0" slope="0.00"/>
        <vehicle id="4" x="86.35" y="-0.41" angle="75.30" type="DEFAULT_VEHTYPE" speed="5.15" pos="7.14" lane=":195_5_0" slope="0.00"/>
        <vehicle id="5" x="14.13" y="2.07" angle="270.03" type="DEFAULT_VEHTYPE" speed="10.45" pos="65.34" lane="5.0.00_0" slope="0.00"/>
        <vehicle id="6" x="338.11" y="265.39" angle="352.03" type="DEFAULT_VEHTYPE" speed="6.82" pos="5.87" lane=":111_3_0" slope="0.00"/>
        <vehicle id="7" x="211.78" y="269.13" angle="89.99" type="DEFAULT_VEHTYPE" speed="12.11" pos="44.55" lane="-10.0.00_0" slope="0.00"/>
        <vehicle id="8" x="392.40" y="282.43" angle="180.00" type="DEFAULT_VEHTYPE" speed="10.22" pos="36.33" lane="8.0.00_0" slope="0.00"/>
        <vehicle id="9" x="338.90" y="233.74" angle="0.03" type="DEFAULT_VEHTYPE" speed="7.80" pos="25.71" lane="17.0.00_0" slope="0.00"/>
    </timestep>
    <timestep time="14.00">
        <vehicle id="0" x="242.36" y="199.13" angle="270.03" type="DEFAULT_VEHTYPE" speed="14.39" pos="83.34" lane="4.0.00_0" slope="0.00"/>
        <vehicle id="1" x="300.11" y="269.14" angle="89.99" type="DEFAULT_VEHTYPE" speed="11.79" pos="132.88" lane="-10.0.00_0" slope="0.00"/>
        <vehicle id="10" x="92.45" y="231.63" angle="359.99" type="DEFAULT_VEHTYPE" speed="6.78" pos="22.86" lane="22.0.00_0" slope="0.00"/>
        <vehicle id="11" x="334.86" y="167.63" angle="180.03" type="DEFAULT_VEHTYPE" speed="6.26" pos="17.31" lane="-18.0.00_0" slope="0.00"/>
        <vehicle id="12" x="112.14" y="129.47" angle="90.01" type="DEFAULT_VEHTYPE" speed="3.64" pos="10.66" lane="-12.0.00_0" slope="0.00"/>
        <vehicle id="13" x="334.83" y="112.97" angle="180.03" type="DEFAULT_VEHTYPE" speed="1.38" pos="6.48" lane="-19.0.00_0" slope="0.00"/>
        <vehicle id="14" x="338.89" y="213.13" angle="0.03" type="DEFAULT_VEHTYPE" speed="0.00" pos="5.10" lane="17.0.00_0" slope="0.00"/>
        <vehicle id="2" x="123.05" y="326.66" angle="90.00" type="DEFAULT_VEHTYPE" speed="13.42" pos="20.29" lane="2.0.00_0" slope="0.00"/>
        <vehicle id="3" x="2.07" y="111.24" angle="0.00" type="DEFAULT_VEHTYPE" speed="13.79" pos="100.08" lane="15.0.00_0" slope="0.00"/>
        <vehicle id="4" x="91.25" y="4.78" angle="36.10" type="DEFAULT_VEHTYPE" speed="7.36" pos="6.51" lane=":195_6_0" slope="0.00"/>
        <vehicle id="5" x="4.03" y="4.85" angle="302.45" type="DEFAULT_VEHTYPE" speed="11.00" pos="6.76" lane="-20.0.00_0" slope="0.00"/>
        <vehicle id="6" x="332.40" y="271.72" angle="308.41" type="DEFAULT_VEHTYPE" speed="8.80" pos="6.36" lane=":111_6_0" slope="0.00"/>
        <vehicle id="7" x="222.88" y="269.13" angle="89.99" type="DEFAULT_VEHTYPE" speed="11.10" pos="55.64" lane="-10.0.00_0" slope="0.00"/>
        <vehicle id="8" x="392.38" y="269.66" angle="180.11" type="DEFAULT_VEHTYPE" speed="12.77" pos="49.10" lane="8.0.00_0" slope="0.00"/>
        <vehicle id="9" x="338.91" y="243.13" angle="0.03" type="DEFAULT_VEHTYPE" speed="9.40" pos="35.10" lane="17.0.00_0" slope="0.00"/>
    </timestep>
    <timestep time="15.00">
        <vehicle id="0" x="228.76" y="199.14" angle="270.03" type="DEFAULT_VEHTYPE" speed="13.61" pos="96.94" lane="4.0.00_0" slope="0.00"/>
        <vehicle id="1" x="312.92" y="269.14" angle="89.99" type="DEFAULT_VEHTYPE" speed="12.81" pos="145.69" lane="-10.0.00_0" slope="0.00"/>
        <vehicle id="10" x="92.44" y="240.98" angle="359.99" type="DEFAULT_VEHTYPE" speed="9.35" pos="32.20" lane="22.0.00_0" slope="0.00"/>
        <vehicle id="11" x="334.86" y="160.07" angle="180.03" type="DEFAULT_VEHTYPE" speed="7.56" pos="24.87" lane="-18.0.00_0" slope="0.00"/>
        <vehicle id="12" x="117.78" y="129.47" angle="90.01" type="DEFAULT_VEHTYPE" speed="5.64" pos="16.30" lane="-12.0.00_0" slope="0.00"/>
        <vehicle id="13" x="334.82" y="109.90" angle="180.03" type="DEFAULT_VEHTYPE" speed="3.07" pos="9.55" lane="-19.0.00_0" slope="0.00"/>
        <vehicle id="14" x="338.89" y="214.94" angle="0.03" type="DEFAULT_VEHTYPE" speed="1.81" pos="6.91" lane="17.0.00_0" slope="0.00"/>
        <vehicle id="15" x="334.92" y="254.48" angle="180.03" type="DEFAULT_VEHTYPE" speed="0.00" pos="5.10" lane="-17.0.00_0" slope="0.00"/>
        <vehicle id="2" x="135.18" y="326.66" angle="90.00" type="DEFAULT_VEHTYPE" speed="12.13" pos="32.42" lane="2.0.00_0" slope="0.00"/>
        <vehicle id="3" x="2.06" y="125.03" angle="0.00" type="DEFAULT_VEHTYPE" speed="13.79" pos="113.87" lane="15.0.00_0" slope="0.00"/>
        <vehicle id="4" x="92.48" y="14.55" angle="2.79" type="DEFAULT_VEHTYPE" speed="9.94" pos="3.24" lane="24.0.00_0" slope="0.00"/>
        <vehicle id="6" x="322.95" y="273.14" angle="273.77" type="DEFAULT_VEHTYPE" speed="9.68" pos="2.74" lane="10.0.00_0" slope="0.00"/>
        <vehicle id="7" x="234.82" y="269.13" angle="89.99" type="DEFAULT_VEHTYPE" speed="11.94" pos="67.59" lane="-10.0.00_0" slope="0.00"/>
        <vehicle id="8" x="392.37" y="257.32" angle="180.02" type="DEFAULT_VEHTYPE" speed="12.34" pos="61.44" lane="8.0.00_0" slope="0.00"/>
        <vehicle id="9" x="338.92" y="254.17" angle="0.03" type="DEFAULT_VEHTYPE" speed="11.04" pos="46.14" lane="17.0.00_0" slope="0.00"/>
    </timestep>
    <timestep time="16.00">
        <vehicle id="0" x="214.42" y="199.14" angle="270.03" type="DEFAULT_VEHTYPE" speed="14.34" pos="111.28" lane="4.0.00_0" slope="0.00"/>
        <vehicle id="1" x="321.25" y="269.14" angle="89.99" type="DEFAULT_VEHTYPE" speed="8.32" pos="154.01" lane="-10.0.00_0" slope="0.00"/>
        <vehicle id="10" x="92.44" y="252.85" angle="359.99" type="DEFAULT_VEHTYPE" speed="11.87" pos="44.07" lane="22.0.00_0" slope="0.00"/>
        <vehicle id="11" x="334.85" y="150.92" angle="180.03" type="DEFAULT_VEHTYPE" speed="9.16" pos="34.03" lane="-18.0.00_0" slope="0.00"/>
        <vehicle id="12" x="125.87" y="129.47" angle="90.01" type="DEFAULT_VEHTYPE" speed="8.09" pos="24.39" lane="-12.0.00_0" slope="0.00"/>
        <vehicle id="13" x="334.82" y="105.11" angle="180.03" type="DEFAULT_VEHTYPE" speed="4.79" pos="14.34" lane="-19.0.00_0" slope="0.00"/>
        <vehicle id="14" x="338.90" y="219.30" angle="0.03" type="DEFAULT_VEHTYPE" speed="4.36" pos="11.27" lane="17.0.00_0" slope="0.00"/>
        <vehicle id="15" x="334.92" y="253.16" angle="180.03" type="DEFAULT_VEHTYPE" speed="1.32" pos="6.42" lane="-17.0.00_0" slope="0.00"/>
        <vehicle id="2" x="144.43" y="326.66" angle="90.00" type="DEFAULT_VEHTYPE" speed="9.25" pos="41.67" lane="2.0.00_0" slope="0.00"/>
        <vehicle id="3" x="2.05" y="139.90" angle="359.89" type="DEFAULT_VEHTYPE" speed="14.87" pos="128.74" lane="15.0.00_0" slope="0.00"/>
        <vehicle id="4" x="92.48" y="26.44" angle="359.99" type="DEFAULT_VEHTYPE" speed="11.90" pos="15.13" lane="24.0.00_0" slope="0.00"/>
        <vehicle id="6" x="311.83" y="273.14" angle="269.99" type="DEFAULT_VEHTYPE" speed="11.12" pos="13.86" lane="10.0.00_0" slope="0.00"/>
        <vehicle id="7" x="246.81" y="269.13" angle="89.99" type="DEFAULT_VEHTYPE" speed="11.99" pos="79.58" lane="-10.0.00_0" slope="0.00"/>
        <vehicle id="8" x="392.35" y="245.30" angle="180.11" type="DEFAULT_VEHTYPE" speed="12.02" pos="73.46" lane="8.0.00_0" slope="0.00"/>
        <vehicle id="9" x="338.92" y="265.09" angle="0.03" type="DEFAULT_VEHTYPE" speed="10.92" pos="5.51" lane=":111_2_0" slope="0.00"/>
    </timestep>
    <timestep time="17.00">
        <vehicle id="0" x="200.81" y="199.15" angle="270.03" type="DEFAULT_VEHTYPE" speed="13.61" pos="124.89" lane="4.0.00_0" slope="0.00"/>
        <vehicle id="1" x="328.94" y="268.66" angle="95.55" type="DEFAULT_VEHTYPE" speed="7.73" pos="3.29" lane=":111_4_0" slope="0.00"/>
        <vehicle id="10" x="92.44" y="266.16" angle="0.00" type="DEFAULT_VEHTYPE" speed="13.31" pos="5.70" lane=":184_5_0" slope="0.00"/>
        <vehicle id="11" x="334.85" y="143.69" angle="180.03" type="DEFAULT_VEHTYPE" speed="7.23" pos="41.26" lane="-18.0.00_0" slope="0.00"/>
        <vehicle id="12" x="136.15" y="129.47" angle="90.01" type="DEFAULT_VEHTYPE" speed="10.28" pos="34.67" lane="-12.0.00_0" slope="0.00"/>
        <vehicle id="13" x="334.82" y="98.44" angle="180.03" type="DEFAULT_VEHTYPE" speed="6.67" pos="21.01" lane="-19.0.00_0" slope="0.00"/>
        <vehicle id="14" x="338.90" y="225.92" angle="0.03" type="DEFAULT_VEHTYPE" speed="6.61" pos="17.89" lane="17.0.00_0" slope="0.00"/>
        <vehicle id="15" x="334.91" y="249.96" angle="180.03" type="DEFAULT_VEHTYPE" speed="3.20" pos="9.62" lane="-17.0.00_0" slope="0.00"/>
        <vehicle id="17" x="338.77" y="16.26" angle="0.03" type="DEFAULT_VEHTYPE" speed="0.00" pos="5.10" lane="19.0.00_0" slope="0.00"/>
        <vehicle id="2" x="151.15" y="324.88" angle="108.79" type="DEFAULT_VEHTYPE" speed="7.09" pos="6.50" lane=":26_4_0" slope="0.00"/>
        <vehicle id="3" x="2.05" y="154.30" angle="0.00" type="DEFAULT_VEHTYPE" speed="14.40" pos="143.14" lane="15.0.00_0" slope="0.00"/>
        <vehicle id="4" x="92.47" y="40.64" angle="359.99" type="DEFAULT_VEHTYPE" speed="14.20" pos="29.33" lane="24.0.00_0" slope="0.00"/>
        <vehicle id="6" x="299.03" y="273.14" angle="269.99" type="DEFAULT_VEHTYPE" speed="12.80" pos="26.66" lane="10.0.00_0" slope="0.00"/>
        <vehicle id="7" x="258.15" y="269.13" angle="89.99" type="DEFAULT_VEHTYPE" speed="11.34" pos="90.91" lane="-10.0.00_0" slope="0.00"/>
        <vehicle id="8" x="392.35" y="232.43" angle="180.00" type="DEFAULT_VEHTYPE" speed="12.87" pos="86.33" lane="8.0.00_0" slope="0.00"/>
        <vehicle id="9" x="338.93" y="276.42" angle="0.03" type="DEFAULT_VEHTYPE" speed="11.33" pos="16.84" lane=":111_2_0" slope="0.00"/>
    </timestep>
    <timestep time="18.00">
        <vehicle id="0" x="186.49" y="199.16" angle="270.03" type="DEFAULT_VEHTYPE" speed="14.32" pos="139.21" lane="4.0.00_0" slope="0.00"/>
        <vehicle id="1" x="334.28" y="263.86" angle="140.71" type="DEFAULT_VEHTYPE" speed="7.53" pos="10.82" lane=":111_4_0" slope="0.00"/>
        <vehicle id="10" x="92.44" y="280.39" angle="0.00" type="DEFAULT_VEHTYPE" speed="14.23" pos="19.93" lane=":184_5_0" slope="0.00"/>
        <vehicle id="11" x="333.00" y="136.58" angle="199.13" type="DEFAULT_VEHTYPE" speed="7.48" pos="6.76" lane=":94_0_0" slope="0.00"/>
        <vehicle id="12" x="148.32" y="129.47" angle="90.01" type="DEFAULT_VEHTYPE" speed="12.17" pos="46.84" lane="-12.0.00_0" slope="0.00"/>
        <vehicle id="13" x="334.81" y="90.35" angle="180.03" type="DEFAULT_VEHTYPE" speed="8.09" pos="29.10" lane="-19.0.00_0" slope="0.00"/>
        <vehicle id="14" x="338.91" y="234.45" angle="0.03" type="DEFAULT_VEHTYPE" speed="8.54" pos="26.42" lane="17.0.00_0" slope="0.00"/>
        <vehicle id="15" x="334.91" y="244.74" angle="180.03" type="DEFAULT_VEHTYPE" speed="5.22" pos="14.84" lane="-17.0.00_0" slope="0.00"/>
        <vehicle id="17" x="338.77" y="18.77" angle="0.03" type="DEFAULT_VEHTYPE" speed="2.51" pos="7.61" lane="19.0.00_0" slope="0.00"/>
        <vehicle id="18" x="92.48" y="16.41" angle="359.99" type="DEFAULT_VEHTYPE" speed="0.00" pos="5.10" lane="24.0.00_0" slope="0.00"/>
        <vehicle id="2" x="153.98" y="318.88" angle="161.61" type="DEFAULT_VEHTYPE" speed="6.92" pos="13.42" lane=":26_4_0" slope="0.00"/>
        <vehicle id="3" x="2.04" y="168.68" angle="0.00" type="DEFAULT_VEHTYPE" speed="14.39" pos="157.52" lane="15.0.00_0" slope="0.00"/>
        <vehicle id="4" x="92.47" y="53.73" angle="359.99" type="DEFAULT_VEHTYPE" speed="13.09" pos="42.42" lane="24.0.00_0" slope="0.00"/>
        <vehicle id="6" x="284.56" y="273.13" angle="269.99" type="DEFAULT_VEHTYPE" speed="14.47" pos="41.13" lane="10.0.00_0" slope="0.00"/>
        <vehicle id="7" x="270.37" y="269.13" angle="89.99" type="DEFAULT_VEHTYPE" speed="12.22" pos="103.14" lane="-10.0.00_0" slope="0.00"/>
        <vehicle id="8" x="392.35" y="219.73" angle="180.00" type="DEFAULT_VEHTYPE" speed="12.70" pos="99.03" lane="8.0.00_0" slope="0.00"/>
        <vehicle id="9" x="338.93" y="287.67" angle="0.03" type="DEFAULT_VEHTYPE" speed="11.26" pos="5.48" lane="16.0.00_0" slope="0.00"/>
    </timestep>
    <timestep time="19.00">
        <vehicle id="0" x="171.86" y="199.17" angle="270.03" type="DEFAULT_VEHTYPE" speed="14.63" pos="153.84" lane="4.0.00_0" slope="0.00"/>
        <vehicle id="1" x="334.92" y="256.94" angle="176.29" type="DEFAULT_VEHTYPE" speed="6.98" pos="2.64" lane="-17.0.00_0" slope="0.00"/>
        <vehicle id="10" x="92.44" y="295.11" angle="359.98" type="DEFAULT_VEHTYPE" speed="14.72" pos="12.65" lane="21.0.00_0" slope="0.00"/>
        <vehicle id="11" x="326.78" y="133.61" angle="251.99" type="DEFAULT_VEHTYPE" speed="7.20" pos="13.96" lane=":94_0_0" slope="0.00"/>
        <vehicle id="12" x="162.53" y="129.46" angle="90.01" type="DEFAULT_VEHTYPE" speed="14.21" pos="61.05" lane="-12.0.00_0" slope="0.00"/>
        <vehicle id="13" x="334.81" y="80.16" angle="180.03" type="DEFAULT_VEHTYPE" speed="10.19" pos="39.29" lane="-19.0.00_0" slope="0.00"/>
        <vehicle id="14" x="338.91" y="245.30" angle="0.03" type="DEFAULT_VEHTYPE" speed="10.84" pos="37.27" lane="17.0.00_0" slope="0.00"/>
        <vehicle id="15" x="334.91" y="237.23" angle="180.03" type="DEFAULT_VEHTYPE" speed="7.51" pos="22.35" lane="-17.0.00_0" slope="0.00"/>
        <vehicle id="17" x="338.78" y="23.43" angle="0.03" type="DEFAULT_VEHTYPE" speed="4.66" pos="12.27" lane="19.0.00_0" slope="0.00"/>
        <vehicle id="18" x="92.48" y="17.85" angle="359.99" type="DEFAULT_VEHTYPE" speed="1.44" pos="6.54" lane="24.0.00_0" slope="0.00"/>
        <vehicle id="19" x="338.85" y="148.06" angle="0.03" type="DEFAULT_VEHTYPE" speed="0.00" pos="5.10" lane="18.0.00_0" slope="0.00"/>
        <vehicle id="2" x="154.12" y="310.79" angle="180.08" type="DEFAULT_VEHTYPE" speed="8.10" pos="7.11" lane="-25.0.00_0" slope="0.00"/>
        <vehicle id="3" x="2.03" y="182.89" angle="0.00" type="DEFAULT_VEHTYPE" speed="14.20" pos="171.73" lane="15.0.00_0" slope="0.00"/>
        <vehicle id="4" x="92.47" y="67.82" angle="359.99" type="DEFAULT_VEHTYPE" speed="14.10" pos="56.52" lane="24.0.00_0" slope="0.00"/>
        <vehicle id="6" x="270.67" y="273.13" angle="269.99" type="DEFAULT_VEHTYPE" speed="13.89" pos="55.01" lane="10.0.00_0" slope="0.00"/>
        <vehicle id="7" x="282.59" y="269.13" angle="89.99" type="DEFAULT_VEHTYPE" speed="12.22" pos="115.35" lane="-10.0.00_0" slope="0.00"/>
        <vehicle id="8" x="392.35" y="206.95" angle="180.00" type="DEFAULT_VEHTYPE" speed="12.79" pos="111.81" lane="8.0.00_0" slope="0.00"/>
        <vehicle id="9" x="338.94" y="298.81" angle="0.03" type="DEFAULT_VEHTYPE" speed="11.14" pos="16.62" lane="16.0.00_0" slope="0.00"/>
    </timestep>
    <timestep time="20.00">
        <vehicle id="0" x="157.94" y="199.17" angle="270.03" type="DEFAULT_VEHTYPE" speed="13.92" pos="167.76" lane="4.0.00_0" slope="0.00"/>