<?xml version="1.0" encoding="UTF-8"?>

<!-- generated on Wed Aug 14 10:58:55 2019 by Eclipse SUMO Version 1.2.0
<configuration xmlns:xsi="http://www.w3.org/2001/XMLSchema-instance" xsi:noNamespaceSchemaLocation="http://sumo.dlr.de/xsd/sumoConfiguration.xsd">

    <input>
        <net-file value="Town01.net.xml"/>
        <route-files value="trips.trips.xml"/>
    </input>

    <output>
        <netstate-dump value="test.log"/>
        <fcd-output value="Town01_Car150.log"/>
    </output>

    <time>
        <begin value="0"/>
        <end value="10000"/>
    </time>

</configuration>
-->

<fcd-export xmlns:xsi="http://www.w3.org/2001/XMLSchema-instance" xsi:noNamespaceSchemaLocation="http://sumo.dlr.de/xsd/fcd_file.xsd">
    <timestep time="0.00">
        <vehicle id="0" x="396.41" y="15.17" angle="0.00" type="DEFAULT_VEHTYPE" speed="0.00" pos="5.10" lane="-8.0.00_0" slope="0.00"/>
    </timestep>
    <timestep time="1.00">
        <vehicle id="0" x="396.41" y="16.49" angle="0.00" type="DEFAULT_VEHTYPE" speed="1.32" pos="6.42" lane="-8.0.00_0" slope="0.00"/>
        <vehicle id="1" x="88.43" y="312.84" angle="179.98" type="DEFAULT_VEHTYPE" speed="0.00" pos="5.10" lane="-21.0.00_0" slope="0.00"/>
    </timestep>
    <timestep time="2.00">
        <vehicle id="0" x="396.41" y="20.31" angle="0.00" type="DEFAULT_VEHTYPE" speed="3.82" pos="10.24" lane="-8.0.00_0" slope="0.00"/>
        <vehicle id="1" x="88.43" y="310.48" angle="179.98" type="DEFAULT_VEHTYPE" speed="2.36" pos="7.46" lane="-21.0.00_0" slope="0.00"/>
        <vehicle id="2" x="173.24" y="326.65" angle="90.00" type="DEFAULT_VEHTYPE" speed="0.00" pos="5.10" lane="1.0.00_0" slope="0.00"/>
    </timestep>
    <timestep time="3.00">
        <vehicle id="0" x="396.40" y="26.39" angle="359.89" type="DEFAULT_VEHTYPE" speed="6.09" pos="16.32" lane="-8.0.00_0" slope="0.00"/>
        <vehicle id="1" x="88.43" y="306.76" angle="179.98" type="DEFAULT_VEHTYPE" speed="3.72" pos="11.19" lane="-21.0.00_0" slope="0.00"/>
        <vehicle id="2" x="175.49" y="326.65" angle="90.00" type="DEFAULT_VEHTYPE" speed="2.25" pos="7.35" lane="1.0.00_0" slope="0.00"/>
        <vehicle id="3" x="6.04" y="330.15" angle="264.42" type="DEFAULT_VEHTYPE" speed="0.00" pos="5.10" lane="13.0.00_0" slope="0.00"/>
    </timestep>
    <timestep time="4.00">
        <vehicle id="0" x="396.40" y="34.27" angle="0.00" type="DEFAULT_VEHTYPE" speed="7.88" pos="24.20" lane="-8.0.00_0" slope="0.00"/>
        <vehicle id="1" x="88.43" y="301.41" angle="179.98" type="DEFAULT_VEHTYPE" speed="5.34" pos="16.53" lane="-21.0.00_0" slope="0.00"/>
        <vehicle id="2" x="180.21" y="326.65" angle="90.00" type="DEFAULT_VEHTYPE" speed="4.72" pos="12.07" lane="1.0.00_0" slope="0.00"/>
        <vehicle id="3" x="3.87" y="329.28" angle="254.58" type="DEFAULT_VEHTYPE" speed="2.34" pos="7.44" lane="13.0.00_0" slope="0.00"/>
        <vehicle id="4" x="392.43" y="313.66" angle="180.07" type="DEFAULT_VEHTYPE" speed="0.00" pos="5.10" lane="8.0.00_0" slope="0.00"/>
    </timestep>
    <timestep time="5.00">
        <vehicle id="0" x="396.40" y="44.39" angle="0.00" type="DEFAULT_VEHTYPE" speed="10.11" pos="34.32" lane="-8.0.00_0" slope="0.00"/>
        <vehicle id="1" x="88.44" y="294.35" angle="179.98" type="DEFAULT_VEHTYPE" speed="7.07" pos="23.60" lane="-21.0.00_0" slope="0.00"/>
        <vehicle id="2" x="186.27" y="326.65" angle="90.00" type="DEFAULT_VEHTYPE" speed="6.06" pos="18.13" lane="1.0.00_0" slope="0.00"/>
        <vehicle id="3" x="0.85" y="327.05" angle="236.64" type="DEFAULT_VEHTYPE" speed="3.78" pos="11.22" lane="13.0.00_0" slope="0.00"/>
        <vehicle id="4" x="392.43" y="311.25" angle="180.11" type="DEFAULT_VEHTYPE" speed="2.41" pos="7.51" lane="8.0.00_0" slope="0.00"/>
        <vehicle id="5" x="391.10" y="323.72" angle="123.67" type="DEFAULT_VEHTYPE" speed="0.00" pos="5.10" lane="-11.0.00_0" slope="0.00"/>
    </timestep>
    <timestep time="6.00">
        <vehicle id="0" x="396.39" y="57.09" angle="0.00" type="DEFAULT_VEHTYPE" speed="12.70" pos="47.02" lane="-8.0.00_0" slope="0.00"/>
        <vehicle id="1" x="88.44" y="285.54" angle="179.98" type="DEFAULT_VEHTYPE" speed="8.81" pos="32.41" lane="-21.0.00_0" slope="0.00"/>
        <vehicle id="2" x="193.76" y="326.65" angle="90.00" type="DEFAULT_VEHTYPE" speed="7.48" pos="25.61" lane="1.0.00_0" slope="0.00"/>
        <vehicle id="3" x="-1.80" y="321.53" angle="202.58" type="DEFAULT_VEHTYPE" speed="6.23" pos="17.45" lane="13.0.00_0" slope="0.00"/>
        <vehicle id="4" x="392.43" y="307.37" angle="180.00" type="DEFAULT_VEHTYPE" speed="3.87" pos="11.39" lane="8.0.00_0" slope="0.00"/>
        <vehicle id="5" x="392.15" y="321.51" angle="144.07" type="DEFAULT_VEHTYPE" speed="2.47" pos="7.57" lane="-11.0.00_0" slope="0.00"/>
        <vehicle id="6" x="320.59" y="273.14" angle="269.99" type="DEFAULT_VEHTYPE" speed="0.00" pos="5.10" lane="10.0.00_0" slope="0.00"/>
    </timestep>
    <timestep time="7.00">
        <vehicle id="0" x="396.39" y="71.53" angle="0.00" type="DEFAULT_VEHTYPE" speed="14.44" pos="61.46" lane="-8.0.00_0" slope="0.00"/>
        <vehicle id="1" x="89.05" y="278.05" angle="172.96" type="DEFAULT_VEHTYPE" speed="7.54" pos="4.45" lane=":184_1_0" slope="0.00"/>
        <vehicle id="2" x="202.77" y="326.65" angle="90.00" type="DEFAULT_VEHTYPE" speed="9.01" pos="34.63" lane="1.0.00_0" slope="0.00"/>
        <vehicle id="3" x="-1.97" y="313.54" angle="180.00" type="DEFAULT_VEHTYPE" speed="8.09" pos="5.11" lane="-15.0.00_0" slope="0.00"/>
        <vehicle id="4" x="392.42" y="301.07" angle="180.06" type="DEFAULT_VEHTYPE" speed="6.30" pos="17.69" lane="8.0.00_0" slope="0.00"/>
        <vehicle id="5" x="392.44" y="317.65" angle="172.51" type="DEFAULT_VEHTYPE" speed="3.99" pos="1.11" lane="8.0.00_0" slope="0.00"/>
        <vehicle id="6" x="319.15" y="273.14" angle="269.99" type="DEFAULT_VEHTYPE" speed="1.44" pos="6.54" lane="10.0.00_0" slope="0.00"/>
        <vehicle id="7" x="-1.04" y="5.80" angle="169.63" type="DEFAULT_VEHTYPE" speed="0.00" pos="5.10" lane="20.0.00_0" slope="0.00"/>
    </timestep>
    <timestep time="8.00">
        <vehicle id="0" x="396.38" y="85.74" angle="0.00" type="DEFAULT_VEHTYPE" speed="14.21" pos="75.67" lane="-8.0.00_0" slope="0.00"/>
        <vehicle id="1" x="93.55" y="271.30" angle="137.50" type="DEFAULT_VEHTYPE" speed="8.46" pos="4.66" lane=":184_6_0" slope="0.00"/>
        <vehicle id="2" x="213.15" y="326.65" angle="90.00" type="DEFAULT_VEHTYPE" speed="10.38" pos="45.00" lane="1.0.00_0" slope="0.00"/>
        <vehicle id="3" x="-1.98" y="302.89" angle="180.11" type="DEFAULT_VEHTYPE" speed="10.65" pos="15.76" lane="-15.0.00_0" slope="0.00"/>
        <vehicle id="4" x="392.41" y="292.65" angle="180.03" type="DEFAULT_VEHTYPE" speed="8.43" pos="26.11" lane="8.0.00_0" slope="0.00"/>
        <vehicle id="5" x="392.43" y="311.87" angle="180.11" type="DEFAULT_VEHTYPE" speed="5.78" pos="6.89" lane="8.0.00_0" slope="0.00"/>
        <vehicle id="6" x="316.03" y="273.14" angle="269.99" type="DEFAULT_VEHTYPE" speed="3.12" pos="9.66" lane="10.0.00_0" slope="0.00"/>
        <vehicle id="7" x="-0.46" y="4.53" angle="164.02" type="DEFAULT_VEHTYPE" speed="1.40" pos="6.50" lane="20.0.00_0" slope="0.00"/>
    </timestep>
    <timestep time="9.00">
        <vehicle id="0" x="396.38" y="99.48" angle="0.00" type="DEFAULT_VEHTYPE" speed="13.74" pos="89.41" lane="-8.0.00_0" slope="0.00"/>
        <vehicle id="1" x="101.62" y="269.11" angle="98.02" type="DEFAULT_VEHTYPE" speed="8.52" pos="0.17" lane="-9.0.00_0" slope="0.00"/>
        <vehicle id="2" x="225.76" y="326.65" angle="90.00" type="DEFAULT_VEHTYPE" speed="12.61" pos="57.61" lane="1.0.00_0" slope="0.00"/>
        <vehicle id="3" x="-1.98" y="289.72" angle="180.00" type="DEFAULT_VEHTYPE" speed="13.17" pos="28.93" lane="-15.0.00_0" slope="0.00"/>
        <vehicle id="4" x="392.40" y="281.67" angle="180.00" type="DEFAULT_VEHTYPE" speed="10.98" pos="37.09" lane="8.0.00_0" slope="0.00"/>
        <vehicle id="5" x="392.42" y="304.18" angle="180.11" type="DEFAULT_VEHTYPE" speed="7.69" pos="14.58" lane="8.0.00_0" slope="0.00"/>
        <vehicle id="6" x="310.38" y="273.14" angle="269.99" type="DEFAULT_VEHTYPE" speed="5.66" pos="15.31" lane="10.0.00_0" slope="0.00"/>
        <vehicle id="7" x="1.44" y="1.68" angle="149.22" type="DEFAULT_VEHTYPE" speed="3.44" pos="9.94" lane="20.0.00_0" slope="0.00"/>
        <vehicle id="8" x="392.43" y="313.66" angle="180.07" type="DEFAULT_VEHTYPE" speed="0.00" pos="5.10" lane="8.0.00_0" slope="0.00"/>
        <vehicle id="9" x="3.17" y="323.51" angle="13.52" type="DEFAULT_VEHTYPE" speed="0.00" pos="5.10" lane="-13.0.00_0" slope="0.00"/>
    </timestep>
    <timestep time="10.00">
        <vehicle id="0" x="396.37" y="112.99" angle="359.89" type="DEFAULT_VEHTYPE" speed="13.51" pos="102.92" lane="-8.0.00_0" slope="0.00"/>
        <vehicle id="1" x="111.69" y="269.11" angle="89.99" type="DEFAULT_VEHTYPE" speed="10.07" pos="10.24" lane="-9.0.00_0" slope="0.00"/>
        <vehicle id="10" x="334.87" y="179.84" angle="180.03" type="DEFAULT_VEHTYPE" speed="0.00" pos="5.10" lane="-18.0.00_0" slope="0.00"/>
        <vehicle id="2" x="239.02" y="326.65" angle="90.00" type="DEFAULT_VEHTYPE" speed="13.26" pos="70.87" lane="1.0.00_0" slope="0.00"/>
        <vehicle id="3" x="-1.99" y="275.29" angle="180.08" type="DEFAULT_VEHTYPE" speed="14.43" pos="43.36" lane="-15.0.00_0" slope="0.00"/>
        <vehicle id="4" x="392.38" y="269.09" angle="180.11" type="DEFAULT_VEHTYPE" speed="12.57" pos="49.67" lane="8.0.00_0" slope="0.00"/>
        <vehicle id="5" x="392.41" y="294.04" angle="180.11" type="DEFAULT_VEHTYPE" speed="10.13" pos="24.72" lane="8.0.00_0" slope="0.00"/>
        <vehicle id="6" x="302.76" y="273.14" angle="269.99" type="DEFAULT_VEHTYPE" speed="7.62" pos="22.93" lane="10.0.00_0" slope="0.00"/>
        <vehicle id="7" x="5.58" y="-1.16" angle="124.24" type="DEFAULT_VEHTYPE" speed="5.09" pos="15.03" lane="20.0.00_0" slope="0.00"/>
        <vehicle id="8" x="392.43" y="311.39" angle="180.11" type="DEFAULT_VEHTYPE" speed="2.27" pos="7.37" lane="8.0.00_0" slope="0.00"/>
        <vehicle id="9" x="4.70" y="325.08" angle="31.59" type="DEFAULT_VEHTYPE" speed="2.21" pos="7.31" lane="-13.0.00_0" slope="0.00"/>
    </timestep>
    <timestep time="11.00">
        <vehicle id="0" x="396.37" y="126.92" angle="0.00" type="DEFAULT_VEHTYPE" speed="13.93" pos="116.85" lane="-8.0.00_0" slope="0.00"/>
        <vehicle id="1" x="123.41" y="269.12" angle="89.99" type="DEFAULT_VEHTYPE" speed="11.71" pos="21.96" lane="-9.0.00_0" slope="0.00"/>
        <vehicle id="10" x="334.87" y="178.13" angle="180.03" type="DEFAULT_VEHTYPE" speed="1.71" pos="6.81" lane="-18.0.00_0" slope="0.00"/>
        <vehicle id="11" x="88.43" y="312.84" angle="179.98" type="DEFAULT_VEHTYPE" speed="0.00" pos="5.10" lane="-21.0.00_0" slope="0.00"/>
        <vehicle id="2" x="252.50" y="326.64" angle="90.00" type="DEFAULT_VEHTYPE" speed="13.48" pos="84.35" lane="1.0.00_0" slope="0.00"/>
        <vehicle id="3" x="-1.99" y="260.67" angle="180.00" type="DEFAULT_VEHTYPE" speed="14.62" pos="57.98" lane="-15.0.00_0" slope="0.00"/>
        <vehicle id="4" x="392.36" y="255.02" angle="180.11" type="DEFAULT_VEHTYPE" speed="14.07" pos="63.74" lane="8.0.00_0" slope="0.00"/>
        <vehicle id="5" x="392.40" y="283.11" angle="180.00" type="DEFAULT_VEHTYPE" speed="10.93" pos="35.65" lane="8.0.00_0" slope="0.00"/>
        <vehicle id="6" x="293.31" y="273.14" angle="269.99" type="DEFAULT_VEHTYPE" speed="9.45" pos="32.38" lane="10.0.00_0" slope="0.00"/>
        <vehicle id="7" x="12.72" y="-1.93" angle="92.13" type="DEFAULT_VEHTYPE" speed="7.23" pos="2.50" lane="-5.0.00_0" slope="0.00"/>
        <vehicle id="8" x="392.43" y="307.66" angle="180.00" type="DEFAULT_VEHTYPE" speed="3.72" pos="11.10" lane="8.0.00_0" slope="0.00"/>
        <vehicle id="9" x="7.91" y="326.46" angle="61.52" type="DEFAULT_VEHTYPE" speed="3.54" pos="10.85" lane="-13.0.00_0" slope="0.00"/>
    </timestep>
    <timestep time="12.00">
        <vehicle id="0" x="396.37" y="140.91" angle="0.00" type="DEFAULT_VEHTYPE" speed="13.99" pos="130.84" lane="-8.0.00_0" slope="0.00"/>
        <vehicle id="1" x="135.71" y="269.12" angle="89.99" type="DEFAULT_VEHTYPE" speed="12.30" pos="34.26" lane="-9.0.00_0" slope="0.00"/>
        <vehicle id="10" x="334.86" y="173.89" angle="180.03" type="DEFAULT_VEHTYPE" speed="4.24" pos="11.05" lane="-18.0.00_0" slope="0.00"/>
        <vehicle id="11" x="88.43" y="310.79" angle="179.98" type="DEFAULT_VEHTYPE" speed="2.05" pos="7.15" lane="-21.0.00_0" slope="0.00"/>
        <vehicle id="12" x="92.44" y="287.56" angle="359.98" type="DEFAULT_VEHTYPE" speed="0.00" pos="5.10" lane="21.0.00_0" slope="0.00"/>
        <vehicle id="2" x="265.95" y="326.64" angle="90.00" type="DEFAULT_VEHTYPE" speed="13.45" pos="97.81" lane="1.0.00_0" slope="0.00"/>
        <vehicle id="3" x="-2.00" y="245.83" angle="180.00" type="DEFAULT_VEHTYPE" speed="14.84" pos="72.82" lane="-15.0.00_0" slope="0.00"/>
        <vehicle id="4" x="392.35" y="240.84" angle="180.00" type="DEFAULT_VEHTYPE" speed="14.18" pos="77.92" lane="8.0.00_0" slope="0.00"/>
        <vehicle id="5" x="392.38" y="271.62" angle="180.11" type="DEFAULT_VEHTYPE" speed="11.49" pos="47.14" lane="8.0.00_0" slope="0.00"/>
        <vehicle id="6" x="281.31" y="273.13" angle="269.99" type="DEFAULT_VEHTYPE" speed="11.99" pos="44.38" lane="10.0.00_0" slope="0.00"/>
        <vehicle id="7" x="22.16" y="-1.94" angle="90.03" type="DEFAULT_VEHTYPE" speed="9.44" pos="11.94" lane="-5.0.00_0" slope="0.00"/>
        <vehicle id="8" x="392.42" y="302.33" angle="180.11" type="DEFAULT_VEHTYPE" speed="5.33" pos="16.43" lane="8.0.00_0" slope="0.00"/>
        <vehicle id="9" x="13.14" y="326.63" angle="88.84" type="DEFAULT_VEHTYPE" speed="5.35" pos="2.05" lane="3.0.00_0" slope="0.00"/>
    </timestep>
    <timestep time="13.00">
        <vehicle id="0" x="396.37" y="154.44" angle="0.00" type="DEFAULT_VEHTYPE" speed="13.53" pos="144.37" lane="-8.0.00_0" slope="0.00"/>
        <vehicle id="10" x="334.86" y="167.63" angle="180.03" type="DEFAULT_VEHTYPE" speed="6.26" pos="17.31" lane="-18.0.00_0" slope="0.00"/>
        <vehicle id="11" x="88.43" y="306.42" angle="179.98" type="DEFAULT_VEHTYPE" speed="4.37" pos="11.53" lane="-21.0.00_0" slope="0.00"/>
        <vehicle id="12" x="92.44" y="288.90" angle="359.98" type="DEFAULT_VEHTYPE" speed="1.34" pos="6.44" lane="21.0.00_0" slope="0.00"/>
        <vehicle id="13" x="353.39" y="326.61" angle="90.03" type="DEFAULT_VEHTYPE" speed="0.00" pos="5.10" lane="0.0.00_0" slope="0.00"/>
        <vehicle id="2" x="279.01" y="326.64" angle="90.00" type="DEFAULT_VEHTYPE" speed="13.06" pos="110.87" lane="1.0.00_0" slope="0.00"/>
        <vehicle id="3" x="-1.99" y="231.38" angle="179.92" type="DEFAULT_VEHTYPE" speed="14.44" pos="87.27" lane="-15.0.00_0" slope="0.00"/>
        <vehicle id="4" x="392.35" y="227.07" angle="180.00" type="DEFAULT_VEHTYPE" speed="13.77" pos="91.69" lane="8.0.00_0" slope="0.00"/>
        <vehicle id="5" x="392.37" y="261.18" angle="180.11" type="DEFAULT_VEHTYPE" speed="10.44" pos="57.58" lane="8.0.00_0" slope="0.00"/>
        <vehicle id="6" x="267.75" y="273.13" angle="269.99" type="DEFAULT_VEHTYPE" speed="13.56" pos="57.94" lane="10.0.00_0" slope="0.00"/>
        <vehicle id="7" x="33.90" y="-1.94" angle="90.03" type="DEFAULT_VEHTYPE" speed="11.74" pos="23.68" lane="-5.0.00_0" slope="0.00"/>
        <vehicle id="8" x="392.41" y="294.87" angle="180.11" type="DEFAULT_VEHTYPE" speed="7.46" pos="23.89" lane="8.0.00_0" slope="0.00"/>
        <vehicle id="9" x="19.87" y="326.63" angle="89.98" type="DEFAULT_VEHTYPE" speed="6.73" pos="8.78" lane="3.0.00_0" slope="0.00"/>
    </timestep>
    <timestep time="14.00">
        <vehicle id="0" x="396.36" y="168.91" angle="0.00" type="DEFAULT_VEHTYPE" speed="14.47" pos="158.84" lane="-8.0.00_0" slope="0.00"/>
        <vehicle id="10" x="334.86" y="160.07" angle="180.03" type="DEFAULT_VEHTYPE" speed="7.56" pos="24.87" lane="-18.0.00_0" slope="0.00"/>
        <vehicle id="11" x="88.44" y="299.60" angle="179.98" type="DEFAULT_VEHTYPE" speed="6.82" pos="18.35" lane="-21.0.00_0" slope="0.00"/>
        <vehicle id="12" x="92.44" y="292.30" angle="359.98" type="DEFAULT_VEHTYPE" speed="3.40" pos="9.84" lane="21.0.00_0" slope="0.00"/>
        <vehicle id="13" x="355.14" y="326.61" angle="90.03" type="DEFAULT_VEHTYPE" speed="1.75" pos="6.85" lane="0.0.00_0" slope="0.00"/>
        <vehicle id="14" x="378.88" y="2.00" angle="270.00" type="DEFAULT_VEHTYPE" speed="0.00" pos="5.10" lane="7.0.00_0" slope="0.00"/>
        <vehicle id="2" x="292.30" y="326.64" angle="90.00" type="DEFAULT_VEHTYPE" speed="13.29" pos="124.15" lane="1.0.00_0" slope="0.00"/>
        <vehicle id="3" x="-1.99" y="216.59" angle="180.00" type="DEFAULT_VEHTYPE" speed="14.79" pos="102.06" lane="-15.0.00_0" slope="0.00"/>
        <vehicle id="4" x="392.35" y="213.27" angle="180.00" type="DEFAULT_VEHTYPE" speed="13.80" pos="105.49" lane="8.0.00_0" slope="0.00"/>
        <vehicle id="5" x="392.36" y="250.21" angle="180.00" type="DEFAULT_VEHTYPE" speed="10.97" pos="68.55" lane="8.0.00_0" slope="0.00"/>
        <vehicle id="6" x="253.55" y="273.13" angle="269.99" type="DEFAULT_VEHTYPE" speed="14.20" pos="72.14" lane="10.0.00_0" slope="0.00"/>
        <vehicle id="7" x="46.01" y="-1.95" angle="90.03" type="DEFAULT_VEHTYPE" speed="12.10" pos="35.79" lane="-5.0.00_0" slope="0.00"/>
        <vehicle id="8" x="392.40" y="285.61" angle="180.08" type="DEFAULT_VEHTYPE" speed="9.26" pos="33.15" lane="8.0.00_0" slope="0.00"/>
        <vehicle id="9" x="29.11" y="326.64" angle="89.98" type="DEFAULT_VEHTYPE" speed="9.24" pos="18.02" lane="3.0.00_0" slope="0.00"/>
    </timestep>
    <timestep time="15.00">
        <vehicle id="0" x="396.36" y="182.81" angle="0.00" type="DEFAULT_VEHTYPE" speed="13.90" pos="172.74" lane="-8.0.00_0" slope="0.00"/>
        <vehicle id="10" x="334.85" y="150.92" angle="180.03" type="DEFAULT_VEHTYPE" speed="9.16" pos="34.03" lane="-18.0.00_0" slope="0.00"/>
        <vehicle id="11" x="88.44" y="290.80" angle="179.98" type="DEFAULT_VEHTYPE" speed="8.80" pos="27.14" lane="-21.0.00_0" slope="0.00"/>
        <vehicle id="12" x="92.44" y="297.29" angle="359.98" type="DEFAULT_VEHTYPE" speed="5.00" pos="14.84" lane="21.0.00_0" slope="0.00"/>
        <vehicle id="13" x="359.11" y="326.60" angle="90.03" type="DEFAULT_VEHTYPE" speed="3.97" pos="10.82" lane="0.0.00_0" slope="0.00"/>
        <vehicle id="14" x="376.37" y="2.00" angle="270.00" type="DEFAULT_VEHTYPE" speed="2.51" pos="7.61" lane="7.0.00_0" slope="0.00"/>
        <vehicle id="2" x="305.26" y="326.63" angle="90.01" type="DEFAULT_VEHTYPE" speed="12.96" pos="137.12" lane="1.0.00_0" slope="0.00"/>
        <vehicle id="3" x="-1.98" y="201.79" angle="180.00" type="DEFAULT_VEHTYPE" speed="14.80" pos="116.86" lane="-15.0.00_0" slope="0.00"/>
        <vehicle id="4" x="392.36" y="200.20" angle="179.92" type="DEFAULT_VEHTYPE" speed="13.07" pos="118.56" lane="8.0.00_0" slope="0.00"/>
        <vehicle id="5" x="392.35" y="239.47" angle="180.00" type="DEFAULT_VEHTYPE" speed="10.75" pos="79.29" lane="8.0.00_0" slope="0.00"/>
        <vehicle id="6" x="239.73" y="273.13" angle="269.99" type="DEFAULT_VEHTYPE" speed="13.82" pos="85.96" lane="10.0.00_0" slope="0.00"/>
        <vehicle id="7" x="57.40" y="-1.96" angle="90.03" type="DEFAULT_VEHTYPE" speed="11.39" pos="47.18" lane="-5.0.00_0" slope="0.00"/>
        <vehicle id="8" x="392.39" y="273.92" angle="180.00" type="DEFAULT_VEHTYPE" speed="11.69" pos="44.84" lane="8.0.00_0" slope="0.00"/>
        <vehicle id="9" x="40.71" y="326.64" angle="89.98" type="DEFAULT_VEHTYPE" speed="11.59" pos="29.62" lane="3.0.00_0" slope="0.00"/>
    </timestep>
    <timestep time="16.00">
        <vehicle id="0" x="396.36" y="197.23" angle="0.00" type="DEFAULT_VEHTYPE" speed="14.41" pos="187.16" lane="-8.0.00_0" slope="0.00"/>
        <vehicle id="10" x="334.85" y="143.15" angle="180.03" type="DEFAULT_VEHTYPE" speed="7.76" pos="41.80" lane="-18.0.00_0" slope="0.00"/>
        <vehicle id="11" x="88.44" y="280.71" angle="179.99" type="DEFAULT_VEHTYPE" speed="10.10" pos="1.75" lane=":184_0_0" slope="0.00"/>
        <vehicle id="12" x="92.43" y="304.15" angle="359.98" type="DEFAULT_VEHTYPE" speed="6.86" pos="21.69" lane="21.0.00_0" slope="0.00"/>
        <vehicle id="13" x="364.76" y="326.60" angle="90.03" type="DEFAULT_VEHTYPE" speed="5.65" pos="16.47" lane="0.0.00_0" slope="0.00"/>
        <vehicle id="14" x="371.75" y="2.00" angle="270.00" type="DEFAULT_VEHTYPE" speed="4.62" pos="12.23" lane="7.0.00_0" slope="0.00"/>
        <vehicle id="2" x="319.09" y="326.62" angle="90.07" type="DEFAULT_VEHTYPE" speed="13.82" pos="150.94" lane="1.0.00_0" slope="0.00"/>
        <vehicle id="3" x="-1.97" y="187.13" angle="179.97" type="DEFAULT_VEHTYPE" speed="14.65" pos="131.52" lane="-15.0.00_0" slope="0.00"/>
        <vehicle id="4" x="392.36" y="186.60" angle="180.00" type="DEFAULT_VEHTYPE" speed="13.61" pos="132.16" lane="8.0.00_0" slope="0.00"/>
        <vehicle id="5" x="392.35" y="229.20" angle="180.00" type="DEFAULT_VEHTYPE" speed="10.26" pos="89.56" lane="8.0.00_0" slope="0.00"/>
        <vehicle id="6" x="226.17" y="273.13" angle="269.99" type="DEFAULT_VEHTYPE" speed="13.56" pos="99.52" lane="10.0.00_0" slope="0.00"/>
        <vehicle id="7" x="68.82" y="-1.96" angle="90.03" type="DEFAULT_VEHTYPE" speed="11.42" pos="58.60" lane="-5.0.00_0" slope="0.00"/>
        <vehicle id="8" x="392.37" y="262.03" angle="180.11" type="DEFAULT_VEHTYPE" speed="11.89" pos="56.73" lane="8.0.00_0" slope="0.00"/>
        <vehicle id="9" x="52.22" y="326.64" angle="89.98" type="DEFAULT_VEHTYPE" speed="11.51" pos="41.13" lane="3.0.00_0" slope="0.00"/>
    </timestep>
    <timestep time="17.00">
        <vehicle id="0" x="396.35" y="210.92" angle="0.00" type="DEFAULT_VEHTYPE" speed="13.69" pos="200.85" lane="-8.0.00_0" slope="0.00"/>
        <vehicle id="10" x="332.40" y="135.72" angle="204.95" type="DEFAULT_VEHTYPE" speed="8.02" pos="7.82" lane=":94_0_0" slope="0.00"/>
        <vehicle id="11" x="88.44" y="268.56" angle="180.00" type="DEFAULT_VEHTYPE" speed="12.15" pos="13.90" lane=":184_0_0" slope="0.00"/>
        <vehicle id="12" x="92.43" y="313.14" angle="359.98" type="DEFAULT_VEHTYPE" speed="9.00" pos="30.69" lane="21.0.00_0" slope="0.00"/>
        <vehicle id="13" x="372.47" y="326.60" angle="90.03" type="DEFAULT_VEHTYPE" speed="7.71" pos="24.18" lane="0.0.00_0" slope="0.00"/>
        <vehicle id="14" x="365.79" y="2.00" angle="270.00" type="DEFAULT_VEHTYPE" speed="5.96" pos="18.19" lane="7.0.00_0" slope="0.00"/>
        <vehicle id="16" x="334.95" y="312.72" angle="180.03" type="DEFAULT_VEHTYPE" speed="0.00" pos="5.10" lane="-16.0.00_0" slope="0.00"/>
        <vehicle id="17" x="88.46" y="115.18" angle="179.99" type="DEFAULT_VEHTYPE" speed="0.00" pos="5.10" lane="-24.0.00_0" slope="0.00"/>
        <vehicle id="2" x="332.88" y="326.62" angle="90.03" type="DEFAULT_VEHTYPE" speed="13.79" pos="7.19" lane=":43_5_0" slope="0.00"/>
        <vehicle id="3" x="-1.96" y="172.46" angle="179.91" type="DEFAULT_VEHTYPE" speed="14.67" pos="146.19" lane="-15.0.00_0" slope="0.00"/>
        <vehicle id="4" x="392.36" y="172.69" angle="180.00" type="DEFAULT_VEHTYPE" speed="13.91" pos="146.07" lane="8.0.00_0" slope="0.00"/>
        <vehicle id="5" x="392.35" y="218.48" angle="180.00" type="DEFAULT_VEHTYPE" speed="10.72" pos="100.28" lane="8.0.00_0" slope="0.00"/>
        <vehicle id="6" x="211.65" y="273.13" angle="269.99" type="DEFAULT_VEHTYPE" speed="14.52" pos="114.03" lane="10.0.00_0" slope="0.00"/>
        <vehicle id="7" x="78.61" y="-1.97" angle="90.03" type="DEFAULT_VEHTYPE" speed="9.79" pos="68.39" lane="-5.0.00_0" slope="0.00"/>
        <vehicle id="8" x="392.36" y="249.59" angle="180.01" type="DEFAULT_VEHTYPE" speed="12.44" pos="69.17" lane="8.0.00_0" slope="0.00"/>
        <vehicle id="9" x="62.89" y="326.65" angle="89.98" type="DEFAULT_VEHTYPE" speed="10.67" pos="51.80" lane="3.0.00_0" slope="0.00"/>
    </timestep>
    <timestep time="18.00">
        <vehicle id="0" x="396.35" y="225.38" angle="0.00" type="DEFAULT_VEHTYPE" speed="14.46" pos="215.31" lane="-8.0.00_0" slope="0.00"/>
        <vehicle id="10" x="325.19" y="133.45" angle="260.50" type="DEFAULT_VEHTYPE" speed="7.74" pos="0.54" lane="12.0.00_0" slope="0.00"/>
        <vehicle id="11" x="88.44" y="254.94" angle="179.99" type="DEFAULT_VEHTYPE" speed="13.61" pos="5.52" lane="-22.0.00_0" slope="0.00"/>
        <vehicle id="12" x="92.43" y="317.64" angle="359.98" type="DEFAULT_VEHTYPE" speed="4.50" pos="35.19" lane="21.0.00_0" slope="0.00"/>
        <vehicle id="13" x="381.97" y="326.59" angle="90.03" type="DEFAULT_VEHTYPE" speed="9.50" pos="33.68" lane="0.0.00_0" slope="0.00"/>
        <vehicle id="14" x="358.20" y="2.00" angle="270.00" type="DEFAULT_VEHTYPE" speed="7.59" pos="25.78" lane="7.0.00_0" slope="0.00"/>
        <vehicle id="16" x="334.95" y="310.93" angle="180.03" type="DEFAULT_VEHTYPE" speed="1.79" pos="6.89" lane="-16.0.00_0" slope="0.00"/>
        <vehicle id="17" x="88.46" y="113.51" angle="179.99" type="DEFAULT_VEHTYPE" speed="1.67" pos="6.77" lane="-24.0.00_0" slope="0.00"/>
        <vehicle id="18" x="92.48" y="16.41" angle="359.99" type="DEFAULT_VEHTYPE" speed="0.00" pos="5.10" lane="24.0.00_0" slope="0.00"/>
        <vehicle id="2" x="346.34" y="326.61" angle="90.03" type="DEFAULT_VEHTYPE" speed="13.45" pos="20.65" lane=":43_5_0" slope="0.00"/>
        <vehicle id="3" x="-1.96" y="157.82" angle="180.00" type="DEFAULT_VEHTYPE" speed="14.64" pos="160.83" lane="-15.0.00_0" slope="0.00"/>
        <vehicle id="4" x="392.36" y="159.13" angle="180.00" type="DEFAULT_VEHTYPE" speed="13.56" pos="159.63" lane="8.0.00_0" slope="0.00"/>
        <vehicle id="5" x="392.35" y="207.17" angle="180.00" type="DEFAULT_VEHTYPE" speed="11.30" pos="111.59" lane="8.0.00_0" slope="0.00"/>
        <vehicle id="6" x="198.00" y="273.12" angle="269.99" type="DEFAULT_VEHTYPE" speed="13.65" pos="127.68" lane="10.0.00_0" slope="0.00"/>
        <vehicle id="7" x="84.57" y="-1.23" angle="81.70" type="DEFAULT_VEHTYPE" speed="6.02" pos="5.16" lane=":195_5_0" slope="0.00"/>
        <vehicle id="8" x="392.35" y="236.73" angle="180.00" type="DEFAULT_VEHTYPE" speed="12.86" pos="82.03" lane="8.0.00_0" slope="0.00"/>
        <vehicle id="9" x="74.06" y="326.65" angle="89.98" type="DEFAULT_VEHTYPE" speed="11.17" pos="62.97" lane="3.0.00_0" slope="0.00"/>
    </timestep>
    <timestep time="19.00">
        <vehicle id="0" x="396.35" y="240.05" angle="0.00" type="DEFAULT_VEHTYPE" speed="14.67" pos="229.98" lane="-8.0.00_0" slope="0.00"/>
        <vehicle id="10" x="315.71" y="133.45" angle="270.01" type="DEFAULT_VEHTYPE" speed="9.49" pos="10.02" lane="12.0.00_0" slope="0.00"/>
        <vehicle id="11" x="88.44" y="240.74" angle="179.99" type="DEFAULT_VEHTYPE" speed="14.21" pos="19.72" lane="-22.0.00_0" slope="0.00"/>
        <vehicle id="12" x="91.44" y="323.80" angle="350.19" type="DEFAULT_VEHTYPE" speed="6.27" pos="5.97" lane=":77_3_0" slope="0.00"/>
        <vehicle id="14" x="349.24" y="2.00" angle="270.00" type="DEFAULT_VEHTYPE" speed="8.96" pos="34.74" lane="7.0.00_0" slope="0.00"/>
        <vehicle id="16" x="334.94" y="307.04" angle="180.03" type="DEFAULT_VEHTYPE" speed="3.90" pos="10.78" lane="-16.0.00_0" slope="0.00"/>
        <vehicle id="17" x="88.46" y="109.96" angle="179.99" type="DEFAULT_VEHTYPE" speed="3.56" pos="10.32" lane="-24.0.00_0" slope="0.00"/>
        <vehicle id="18" x="92.48" y="18.37" angle="359.99" type="DEFAULT_VEHTYPE" speed="1.96" pos="7.06" lane="24.0.00_0" slope="0.00"/>
        <vehicle id="19" x="2.07" y="16.26" angle="0.00" type="DEFAULT_VEHTYPE" speed="0.00" pos="5.10" lane="15.0.00_0" slope="0.00"/>
        <vehicle id="2" x="359.60" y="326.60" angle="90.03" type="DEFAULT_VEHTYPE" speed="13.27" pos="11.31" lane="0.0.00_0" slope="0.00"/>
        <vehicle id="3" x="-1.95" y="143.15" angle="180.00" type="DEFAULT_VEHTYPE" speed="14.67" pos="175.50" lane="-15.0.00_0" slope="0.00"/>
        <vehicle id="4" x="392.37" y="145.82" angle="180.00" type="DEFAULT_VEHTYPE" speed="13.31" pos="172.94" lane="8.0.00_0" slope="0.00"/>
        <vehicle id="5" x="392.36" y="196.10" angle="180.00" type="DEFAULT_VEHTYPE" speed="11.07" pos="122.66" lane="8.0.00_0" slope="0.00"/>
        <vehicle id="6" x="184.08" y="273.12" angle="269.99" type="DEFAULT_VEHTYPE" speed="13.92" pos="141.61" lane="10.0.00_0" slope="0.00"/>
        <vehicle id="7" x="90.68" y="3.81" angle="42.46" type="DEFAULT_VEHTYPE" speed="8.22" pos="5.39" lane=":195_6_0" slope="0.00"/>
        <vehicle id="8" x="392.35" y="224.95" angle="180.00" type="DEFAULT_VEHTYPE" speed="11.78" pos="93.81" lane="8.0.00_0" slope="0.00"/>
        <vehicle id="9" x="80.71" y="326.48" angle="92.00" type="DEFAULT_VEHTYPE" speed="6.67" pos="1.29" lane=":77_4_0" slope="0.00"/>
    </timestep>
    <timestep time="20.00">
        <vehicle id="0" x="396.36" y="254.62" angle="0.01" type="DEFAULT_VEHTYPE" speed="14.57" pos="244.55" lane="-8.0.00_0" slope="0.00"/>
        <vehicle id="10" x="304.31" y="133.45" angle="270.01" type="DEFAULT_VEHTYPE" speed="11.39" pos="21.42" lane="12.0.00_0" slope="0.00"/>
        <vehicle id="11" x="88.45" y="226.66" angle="179.99" type="DEFAULT_VEHTYPE" speed="14.07" pos="33.79" lane="-22.0.00_0" slope="0.00"/>
        <vehicle id="12" x="85.87" y="329.42" angle="306.81" type="DEFAULT_VEHTYPE" speed="8.16" pos="14.12" lane=":77_3_0" slope="0.00"/>
        <vehicle id="14" x="341.97" y="3.71" angle="288.32" type="DEFAULT_VEHTYPE" speed="7.62" pos="6.18" lane=":60_2_0" slope="0.00"/>
        <vehicle id="15" x="353.39" y="326.61" angle="90.03" type="DEFAULT_VEHTYPE" speed="0.00" pos="5.10" lane="0.0.00_0" slope="0.00"/>
        <vehicle id="16" x="334.94" y="301.71" angle="180.03" type="DEFAULT_VEHTYPE" speed="5.32" pos="16.11" lane="-16.0.00_0" slope="0.00"/>