<?xml version="1.0" encoding="UTF-8"?>

<!-- generated on Wed Aug 14 12:02:56 2019 by Eclipse SUMO Version 1.2.0
<configuration xmlns:xsi="http://www.w3.org/2001/XMLSchema-instance" xsi:noNamespaceSchemaLocation="http://sumo.dlr.de/xsd/sumoConfiguration.xsd">

    <input>
        <net-file value="Town01.net.xml"/>
        <route-files value="trips.trips.xml"/>
    </input>

    <output>
        <netstate-dump value="test.log"/>
        <fcd-output value="Town02_Car100_3.log"/>
    </output>

    <time>
        <begin value="0"/>
        <end value="10000"/>
    </time>

</configuration>
-->

<fcd-export xmlns:xsi="http://www.w3.org/2001/XMLSchema-instance" xsi:noNamespaceSchemaLocation="http://sumo.dlr.de/xsd/fcd_file.xsd">
    <timestep time="0.00">
        <vehicle id="0" x="139.92" y="330.66" angle="270.00" type="DEFAULT_VEHTYPE" speed="0.00" pos="5.10" lane="-2.0.00_0" slope="0.00"/>
    </timestep>
    <timestep time="1.00">
        <vehicle id="0" x="137.93" y="330.66" angle="270.00" type="DEFAULT_VEHTYPE" speed="1.99" pos="7.09" lane="-2.0.00_0" slope="0.00"/>
        <vehicle id="1" x="16.19" y="326.63" angle="89.98" type="DEFAULT_VEHTYPE" speed="0.00" pos="5.10" lane="3.0.00_0" slope="0.00"/>
    </timestep>
    <timestep time="2.00">
        <vehicle id="0" x="134.08" y="330.66" angle="270.00" type="DEFAULT_VEHTYPE" speed="3.84" pos="10.93" lane="-2.0.00_0" slope="0.00"/>
        <vehicle id="1" x="17.57" y="326.63" angle="89.98" type="DEFAULT_VEHTYPE" speed="1.38" pos="6.48" lane="3.0.00_0" slope="0.00"/>
        <vehicle id="2" x="334.87" y="179.84" angle="180.03" type="DEFAULT_VEHTYPE" speed="0.00" pos="5.10" lane="-18.0.00_0" slope="0.00"/>
    </timestep>
    <timestep time="3.00">
        <vehicle id="0" x="127.69" y="330.66" angle="270.00" type="DEFAULT_VEHTYPE" speed="6.39" pos="17.33" lane="-2.0.00_0" slope="0.00"/>
        <vehicle id="1" x="21.46" y="326.63" angle="89.98" type="DEFAULT_VEHTYPE" speed="3.90" pos="10.37" lane="3.0.00_0" slope="0.00"/>
        <vehicle id="2" x="334.87" y="178.13" angle="180.03" type="DEFAULT_VEHTYPE" speed="1.71" pos="6.81" lane="-18.0.00_0" slope="0.00"/>
        <vehicle id="3" x="173.24" y="326.65" angle="90.00" type="DEFAULT_VEHTYPE" speed="0.00" pos="5.10" lane="1.0.00_0" slope="0.00"/>
    </timestep>
    <timestep time="4.00">
        <vehicle id="0" x="119.88" y="330.66" angle="270.00" type="DEFAULT_VEHTYPE" speed="7.81" pos="25.13" lane="-2.0.00_0" slope="0.00"/>
        <vehicle id="1" x="27.71" y="326.63" angle="89.98" type="DEFAULT_VEHTYPE" speed="6.25" pos="16.62" lane="3.0.00_0" slope="0.00"/>
        <vehicle id="2" x="334.86" y="173.89" angle="180.03" type="DEFAULT_VEHTYPE" speed="4.24" pos="11.05" lane="-18.0.00_0" slope="0.00"/>
        <vehicle id="3" x="175.49" y="326.65" angle="90.00" type="DEFAULT_VEHTYPE" speed="2.25" pos="7.35" lane="1.0.00_0" slope="0.00"/>
        <vehicle id="4" x="391.20" y="5.22" angle="194.33" type="DEFAULT_VEHTYPE" speed="0.00" pos="5.10" lane="-14.0.00_0" slope="0.00"/>
    </timestep>
    <timestep time="5.00">
        <vehicle id="0" x="110.43" y="330.66" angle="270.00" type="DEFAULT_VEHTYPE" speed="9.45" pos="34.59" lane="-2.0.00_0" slope="0.00"/>
        <vehicle id="1" x="36.17" y="326.64" angle="89.98" type="DEFAULT_VEHTYPE" speed="8.46" pos="25.08" lane="3.0.00_0" slope="0.00"/>
        <vehicle id="2" x="334.86" y="167.63" angle="180.03" type="DEFAULT_VEHTYPE" speed="6.26" pos="17.31" lane="-18.0.00_0" slope="0.00"/>
        <vehicle id="3" x="180.21" y="326.65" angle="90.00" type="DEFAULT_VEHTYPE" speed="4.72" pos="12.07" lane="1.0.00_0" slope="0.00"/>
        <vehicle id="4" x="390.33" y="4.17" angle="204.67" type="DEFAULT_VEHTYPE" speed="1.38" pos="6.48" lane="-14.0.00_0" slope="0.00"/>
        <vehicle id="5" x="396.41" y="15.17" angle="0.00" type="DEFAULT_VEHTYPE" speed="0.00" pos="5.10" lane="-8.0.00_0" slope="0.00"/>
    </timestep>
    <timestep time="6.00">
        <vehicle id="0" x="98.80" y="330.66" angle="269.98" type="DEFAULT_VEHTYPE" speed="11.63" pos="3.95" lane=":77_0_0" slope="0.00"/>
        <vehicle id="1" x="45.99" y="326.64" angle="89.98" type="DEFAULT_VEHTYPE" speed="9.82" pos="34.90" lane="3.0.00_0" slope="0.00"/>
        <vehicle id="2" x="334.86" y="160.07" angle="180.03" type="DEFAULT_VEHTYPE" speed="7.56" pos="24.87" lane="-18.0.00_0" slope="0.00"/>
        <vehicle id="3" x="186.27" y="326.65" angle="90.00" type="DEFAULT_VEHTYPE" speed="6.06" pos="18.13" lane="1.0.00_0" slope="0.00"/>
        <vehicle id="4" x="388.05" y="2.73" angle="228.19" type="DEFAULT_VEHTYPE" speed="2.70" pos="9.18" lane="-14.0.00_0" slope="0.00"/>
        <vehicle id="5" x="396.41" y="16.49" angle="0.00" type="DEFAULT_VEHTYPE" speed="1.32" pos="6.42" lane="-8.0.00_0" slope="0.00"/>
        <vehicle id="6" x="320.63" y="133.45" angle="270.01" type="DEFAULT_VEHTYPE" speed="0.00" pos="5.10" lane="12.0.00_0" slope="0.00"/>
    </timestep>
    <timestep time="7.00">
        <vehicle id="0" x="84.85" y="330.65" angle="269.98" type="DEFAULT_VEHTYPE" speed="13.95" pos="17.90" lane=":77_0_0" slope="0.00"/>
        <vehicle id="1" x="58.15" y="326.64" angle="89.98" type="DEFAULT_VEHTYPE" speed="12.16" pos="47.06" lane="3.0.00_0" slope="0.00"/>
        <vehicle id="2" x="334.85" y="150.92" angle="180.03" type="DEFAULT_VEHTYPE" speed="9.16" pos="34.03" lane="-18.0.00_0" slope="0.00"/>
        <vehicle id="3" x="193.76" y="326.65" angle="90.00" type="DEFAULT_VEHTYPE" speed="7.48" pos="25.61" lane="1.0.00_0" slope="0.00"/>
        <vehicle id="4" x="384.02" y="2.00" angle="257.37" type="DEFAULT_VEHTYPE" speed="4.14" pos="0.29" lane=":7.14_0_0" slope="0.00"/>
        <vehicle id="5" x="396.41" y="20.31" angle="0.00" type="DEFAULT_VEHTYPE" speed="3.82" pos="10.24" lane="-8.0.00_0" slope="0.00"/>
        <vehicle id="6" x="318.88" y="133.45" angle="270.01" type="DEFAULT_VEHTYPE" speed="1.75" pos="6.85" lane="12.0.00_0" slope="0.00"/>
        <vehicle id="7" x="106.55" y="269.11" angle="89.99" type="DEFAULT_VEHTYPE" speed="0.00" pos="5.10" lane="-9.0.00_0" slope="0.00"/>
    </timestep>
    <timestep time="8.00">
        <vehicle id="0" x="70.27" y="330.65" angle="269.98" type="DEFAULT_VEHTYPE" speed="14.59" pos="9.17" lane="-3.0.00_0" slope="0.00"/>
        <vehicle id="1" x="70.14" y="326.65" angle="89.98" type="DEFAULT_VEHTYPE" speed="12.00" pos="59.05" lane="3.0.00_0" slope="0.00"/>
        <vehicle id="2" x="334.85" y="140.42" angle="180.04" type="DEFAULT_VEHTYPE" speed="10.49" pos="2.53" lane=":94_1_0" slope="0.00"/>
        <vehicle id="3" x="202.77" y="326.65" angle="90.00" type="DEFAULT_VEHTYPE" speed="9.01" pos="34.63" lane="1.0.00_0" slope="0.00"/>
        <vehicle id="4" x="377.67" y="2.00" angle="270.00" type="DEFAULT_VEHTYPE" speed="6.34" pos="6.31" lane="7.0.00_0" slope="0.00"/>
        <vehicle id="5" x="396.40" y="26.39" angle="359.89" type="DEFAULT_VEHTYPE" speed="6.09" pos="16.32" lane="-8.0.00_0" slope="0.00"/>
        <vehicle id="6" x="315.22" y="133.45" angle="270.01" type="DEFAULT_VEHTYPE" speed="3.66" pos="10.51" lane="12.0.00_0" slope="0.00"/>
        <vehicle id="7" x="108.10" y="269.11" angle="89.99" type="DEFAULT_VEHTYPE" speed="1.55" pos="6.65" lane="-9.0.00_0" slope="0.00"/>
        <vehicle id="8" x="172.33" y="269.12" angle="89.99" type="DEFAULT_VEHTYPE" speed="0.00" pos="5.10" lane="-10.0.00_0" slope="0.00"/>
    </timestep>
    <timestep time="9.00">
        <vehicle id="0" x="56.26" y="330.64" angle="269.98" type="DEFAULT_VEHTYPE" speed="14.01" pos="23.18" lane="-3.0.00_0" slope="0.00"/>
        <vehicle id="1" x="78.84" y="326.65" angle="89.98" type="DEFAULT_VEHTYPE" speed="8.70" pos="67.75" lane="3.0.00_0" slope="0.00"/>
        <vehicle id="2" x="334.84" y="128.30" angle="180.05" type="DEFAULT_VEHTYPE" speed="12.12" pos="14.66" lane=":94_1_0" slope="0.00"/>
        <vehicle id="3" x="213.15" y="326.65" angle="90.00" type="DEFAULT_VEHTYPE" speed="10.38" pos="45.00" lane="1.0.00_0" slope="0.00"/>
        <vehicle id="4" x="368.82" y="2.00" angle="270.00" type="DEFAULT_VEHTYPE" speed="8.85" pos="15.16" lane="7.0.00_0" slope="0.00"/>
        <vehicle id="5" x="396.40" y="34.27" angle="0.00" type="DEFAULT_VEHTYPE" speed="7.88" pos="24.20" lane="-8.0.00_0" slope="0.00"/>
        <vehicle id="6" x="309.48" y="133.45" angle="270.01" type="DEFAULT_VEHTYPE" speed="5.75" pos="16.25" lane="12.0.00_0" slope="0.00"/>
        <vehicle id="7" x="111.29" y="269.11" angle="89.99" type="DEFAULT_VEHTYPE" speed="3.19" pos="9.84" lane="-9.0.00_0" slope="0.00"/>
        <vehicle id="8" x="174.21" y="269.12" angle="89.99" type="DEFAULT_VEHTYPE" speed="1.88" pos="6.98" lane="-10.0.00_0" slope="0.00"/>
        <vehicle id="9" x="391.20" y="5.22" angle="194.33" type="DEFAULT_VEHTYPE" speed="0.00" pos="5.10" lane="-14.0.00_0" slope="0.00"/>
    </timestep>
    <timestep time="10.00">
        <vehicle id="0" x="41.79" y="330.64" angle="269.98" type="DEFAULT_VEHTYPE" speed="14.46" pos="37.65" lane="-3.0.00_0" slope="0.00"/>
        <vehicle id="1" x="85.25" y="325.02" angle="107.50" type="DEFAULT_VEHTYPE" speed="6.74" pos="6.14" lane=":77_4_0" slope="0.00"/>
        <vehicle id="10" x="106.58" y="129.47" angle="90.01" type="DEFAULT_VEHTYPE" speed="0.00" pos="5.10" lane="-12.0.00_0" slope="0.00"/>
        <vehicle id="2" x="334.83" y="115.22" angle="180.03" type="DEFAULT_VEHTYPE" speed="13.07" pos="4.23" lane="-19.0.00_0" slope="0.00"/>
        <vehicle id="3" x="225.76" y="326.65" angle="90.00" type="DEFAULT_VEHTYPE" speed="12.61" pos="57.61" lane="1.0.00_0" slope="0.00"/>
        <vehicle id="4" x="357.85" y="2.00" angle="270.00" type="DEFAULT_VEHTYPE" speed="10.97" pos="26.13" lane="7.0.00_0" slope="0.00"/>
        <vehicle id="5" x="396.40" y="44.39" angle="0.00" type="DEFAULT_VEHTYPE" speed="10.11" pos="34.32" lane="-8.0.00_0" slope="0.00"/>
        <vehicle id="6" x="302.15" y="133.45" angle="270.01" type="DEFAULT_VEHTYPE" speed="7.33" pos="23.58" lane="12.0.00_0" slope="0.00"/>
        <vehicle id="7" x="116.36" y="269.11" angle="89.99" type="DEFAULT_VEHTYPE" speed="5.06" pos="14.91" lane="-9.0.00_0" slope="0.00"/>
        <vehicle id="8" x="178.03" y="269.12" angle="89.99" type="DEFAULT_VEHTYPE" speed="3.82" pos="10.80" lane="-10.0.00_0" slope="0.00"/>
        <vehicle id="9" x="389.39" y="3.46" angle="215.50" type="DEFAULT_VEHTYPE" speed="2.55" pos="7.65" lane="-14.0.00_0" slope="0.00"/>
    </timestep>
    <timestep time="11.00">
        <vehicle id="0" x="28.34" y="330.64" angle="269.98" type="DEFAULT_VEHTYPE" speed="13.45" pos="51.10" lane="-3.0.00_0" slope="0.00"/>
        <vehicle id="1" x="88.34" y="318.56" angle="163.38" type="DEFAULT_VEHTYPE" speed="7.51" pos="13.65" lane=":77_4_0" slope="0.00"/>
        <vehicle id="10" x="108.50" y="129.47" angle="90.01" type="DEFAULT_VEHTYPE" speed="1.92" pos="7.02" lane="-12.0.00_0" slope="0.00"/>
        <vehicle id="11" x="338.85" y="148.06" angle="0.03" type="DEFAULT_VEHTYPE" speed="0.00" pos="5.10" lane="18.0.00_0" slope="0.00"/>
        <vehicle id="2" x="334.82" y="102.40" angle="180.03" type="DEFAULT_VEHTYPE" speed="12.82" pos="17.05" lane="-19.0.00_0" slope="0.00"/>
        <vehicle id="3" x="240.02" y="326.65" angle="90.00" type="DEFAULT_VEHTYPE" speed="14.26" pos="71.88" lane="1.0.00_0" slope="0.00"/>
        <vehicle id="4" x="345.54" y="2.00" angle="270.00" type="DEFAULT_VEHTYPE" speed="12.31" pos="2.25" lane=":60_3_0" slope="0.00"/>
        <vehicle id="5" x="396.39" y="55.92" angle="0.00" type="DEFAULT_VEHTYPE" speed="11.53" pos="45.85" lane="-8.0.00_0" slope="0.00"/>
        <vehicle id="6" x="293.22" y="133.45" angle="270.01" type="DEFAULT_VEHTYPE" speed="8.92" pos="32.51" lane="12.0.00_0" slope="0.00"/>
        <vehicle id="7" x="122.93" y="269.11" angle="89.99" type="DEFAULT_VEHTYPE" speed="6.58" pos="21.48" lane="-9.0.00_0" slope="0.00"/>
        <vehicle id="8" x="184.28" y="269.12" angle="89.99" type="DEFAULT_VEHTYPE" speed="6.25" pos="17.05" lane="-10.0.00_0" slope="0.00"/>
        <vehicle id="9" x="384.72" y="2.00" angle="252.48" type="DEFAULT_VEHTYPE" speed="4.97" pos="12.62" lane="-14.0.00_0" slope="0.00"/>
    </timestep>
    <timestep time="12.00">
        <vehicle id="0" x="14.83" y="330.63" angle="269.98" type="DEFAULT_VEHTYPE" speed="13.51" pos="64.61" lane="-3.0.00_0" slope="0.00"/>
        <vehicle id="1" x="88.43" y="311.95" angle="179.98" type="DEFAULT_VEHTYPE" speed="6.62" pos="5.99" lane="-21.0.00_0" slope="0.00"/>
        <vehicle id="10" x="112.14" y="129.47" angle="90.01" type="DEFAULT_VEHTYPE" speed="3.64" pos="10.66" lane="-12.0.00_0" slope="0.00"/>
        <vehicle id="11" x="338.85" y="150.18" angle="0.03" type="DEFAULT_VEHTYPE" speed="2.12" pos="7.22" lane="18.0.00_0" slope="0.00"/>
        <vehicle id="2" x="334.81" y="89.29" angle="180.03" type="DEFAULT_VEHTYPE" speed="13.12" pos="30.16" lane="-19.0.00_0" slope="0.00"/>
        <vehicle id="3" x="254.51" y="326.64" angle="90.00" type="DEFAULT_VEHTYPE" speed="14.48" pos="86.36" lane="1.0.00_0" slope="0.00"/>
        <vehicle id="4" x="332.49" y="2.00" angle="270.00" type="DEFAULT_VEHTYPE" speed="13.05" pos="15.30" lane=":60_3_0" slope="0.00"/>
        <vehicle id="5" x="396.39" y="67.18" angle="0.00" type="DEFAULT_VEHTYPE" speed="11.26" pos="57.11" lane="-8.0.00_0" slope="0.00"/>
        <vehicle id="6" x="282.21" y="133.45" angle="270.01" type="DEFAULT_VEHTYPE" speed="11.01" pos="43.52" lane="12.0.00_0" slope="0.00"/>
        <vehicle id="7" x="131.56" y="269.12" angle="89.99" type="DEFAULT_VEHTYPE" speed="8.62" pos="30.11" lane="-9.0.00_0" slope="0.00"/>
        <vehicle id="8" x="192.32" y="269.12" angle="89.99" type="DEFAULT_VEHTYPE" speed="8.04" pos="25.09" lane="-10.0.00_0" slope="0.00"/>
        <vehicle id="9" x="378.07" y="2.00" angle="270.00" type="DEFAULT_VEHTYPE" speed="6.66" pos="5.91" lane="7.0.00_0" slope="0.00"/>
    </timestep>
    <timestep time="13.00">
        <vehicle id="0" x="1.16" y="327.36" angle="238.54" type="DEFAULT_VEHTYPE" speed="14.61" pos="10.77" lane="13.0.00_0" slope="0.00"/>
        <vehicle id="1" x="88.43" y="302.97" angle="179.98" type="DEFAULT_VEHTYPE" speed="8.98" pos="14.97" lane="-21.0.00_0" slope="0.00"/>
        <vehicle id="10" x="117.78" y="129.47" angle="90.01" type="DEFAULT_VEHTYPE" speed="5.64" pos="16.30" lane="-12.0.00_0" slope="0.00"/>
        <vehicle id="11" x="338.86" y="154.73" angle="0.03" type="DEFAULT_VEHTYPE" speed="4.55" pos="11.77" lane="18.0.00_0" slope="0.00"/>
        <vehicle id="12" x="106.58" y="129.47" angle="90.01" type="DEFAULT_VEHTYPE" speed="0.00" pos="5.10" lane="-12.0.00_0" slope="0.00"/>
        <vehicle id="13" x="15.32" y="-1.93" angle="90.03" type="DEFAULT_VEHTYPE" speed="0.00" pos="5.10" lane="-5.0.00_0" slope="0.00"/>
        <vehicle id="2" x="334.81" y="76.13" angle="180.03" type="DEFAULT_VEHTYPE" speed="13.15" pos="43.32" lane="-19.0.00_0" slope="0.00"/>
        <vehicle id="3" x="268.97" y="326.64" angle="90.00" type="DEFAULT_VEHTYPE" speed="14.46" pos="100.82" lane="1.0.00_0" slope="0.00"/>
        <vehicle id="4" x="318.72" y="2.00" angle="270.00" type="DEFAULT_VEHTYPE" speed="13.77" pos="7.06" lane="6.0.00_0" slope="0.00"/>
        <vehicle id="5" x="396.38" y="78.21" angle="359.89" type="DEFAULT_VEHTYPE" speed="11.03" pos="68.14" lane="-8.0.00_0" slope="0.00"/>
        <vehicle id="6" x="269.46" y="133.46" angle="270.01" type="DEFAULT_VEHTYPE" speed="12.75" pos="56.27" lane="12.0.00_0" slope="0.00"/>
        <vehicle id="7" x="142.30" y="269.12" angle="89.99" type="DEFAULT_VEHTYPE" speed="10.74" pos="40.85" lane="-9.0.00_0" slope="0.00"/>
        <vehicle id="8" x="202.17" y="269.12" angle="89.99" type="DEFAULT_VEHTYPE" speed="9.85" pos="34.93" lane="-10.0.00_0" slope="0.00"/>
        <vehicle id="9" x="369.78" y="2.00" angle="270.00" type="DEFAULT_VEHTYPE" speed="8.28" pos="14.20" lane="7.0.00_0" slope="0.00"/>
    </timestep>
    <timestep time="14.00">
        <vehicle id="0" x="-1.97" y="313.85" angle="180.00" type="DEFAULT_VEHTYPE" speed="14.46" pos="4.80" lane="-15.0.00_0" slope="0.00"/>
        <vehicle id="1" x="88.44" y="292.63" angle="179.98" type="DEFAULT_VEHTYPE" speed="10.34" pos="25.32" lane="-21.0.00_0" slope="0.00"/>
        <vehicle id="10" x="125.87" y="129.47" angle="90.01" type="DEFAULT_VEHTYPE" speed="8.09" pos="24.39" lane="-12.0.00_0" slope="0.00"/>
        <vehicle id="11" x="338.86" y="161.10" angle="0.03" type="DEFAULT_VEHTYPE" speed="6.38" pos="18.15" lane="18.0.00_0" slope="0.00"/>
        <vehicle id="12" x="108.78" y="129.47" angle="90.01" type="DEFAULT_VEHTYPE" speed="2.20" pos="7.30" lane="-12.0.00_0" slope="0.00"/>
        <vehicle id="13" x="17.53" y="-1.93" angle="90.03" type="DEFAULT_VEHTYPE" speed="2.21" pos="7.31" lane="-5.0.00_0" slope="0.00"/>
        <vehicle id="14" x="334.83" y="114.35" angle="180.03" type="DEFAULT_VEHTYPE" speed="0.00" pos="5.10" lane="-19.0.00_0" slope="0.00"/>
        <vehicle id="2" x="334.80" y="62.81" angle="180.03" type="DEFAULT_VEHTYPE" speed="13.32" pos="56.64" lane="-19.0.00_0" slope="0.00"/>
        <vehicle id="3" x="283.03" y="326.64" angle="90.00" type="DEFAULT_VEHTYPE" speed="14.06" pos="114.88" lane="1.0.00_0" slope="0.00"/>
        <vehicle id="4" x="305.34" y="2.00" angle="270.00" type="DEFAULT_VEHTYPE" speed="13.38" pos="20.44" lane="6.0.00_0" slope="0.00"/>
        <vehicle id="5" x="396.38" y="88.77" angle="0.00" type="DEFAULT_VEHTYPE" speed="10.56" pos="78.70" lane="-8.0.00_0" slope="0.00"/>
        <vehicle id="6" x="255.45" y="133.46" angle="270.01" type="DEFAULT_VEHTYPE" speed="14.01" pos="70.28" lane="12.0.00_0" slope="0.00"/>
        <vehicle id="7" x="148.63" y="269.64" angle="84.00" type="DEFAULT_VEHTYPE" speed="6.37" pos="3.62" lane=":167_5_0" slope="0.00"/>
        <vehicle id="8" x="213.91" y="269.13" angle="89.99" type="DEFAULT_VEHTYPE" speed="11.74" pos="46.68" lane="-10.0.00_0" slope="0.00"/>
        <vehicle id="9" x="360.13" y="2.00" angle="270.00" type="DEFAULT_VEHTYPE" speed="9.65" pos="23.85" lane="7.0.00_0" slope="0.00"/>
    </timestep>
    <timestep time="15.00">
        <vehicle id="0" x="-1.98" y="299.18" angle="180.00" type="DEFAULT_VEHTYPE" speed="14.68" pos="19.47" lane="-15.0.00_0" slope="0.00"/>
        <vehicle id="1" x="88.44" y="280.67" angle="179.99" type="DEFAULT_VEHTYPE" speed="11.96" pos="1.79" lane=":184_0_0" slope="0.00"/>
        <vehicle id="10" x="135.84" y="129.47" angle="90.01" type="DEFAULT_VEHTYPE" speed="9.97" pos="34.36" lane="-12.0.00_0" slope="0.00"/>
        <vehicle id="11" x="338.86" y="169.59" angle="0.03" type="DEFAULT_VEHTYPE" speed="8.49" pos="26.64" lane="18.0.00_0" slope="0.00"/>
        <vehicle id="12" x="113.25" y="129.47" angle="90.01" type="DEFAULT_VEHTYPE" speed="4.47" pos="11.77" lane="-12.0.00_0" slope="0.00"/>
        <vehicle id="13" x="22.03" y="-1.94" angle="90.03" type="DEFAULT_VEHTYPE" speed="4.51" pos="11.81" lane="-5.0.00_0" slope="0.00"/>
        <vehicle id="14" x="334.83" y="112.25" angle="180.03" type="DEFAULT_VEHTYPE" speed="2.10" pos="7.20" lane="-19.0.00_0" slope="0.00"/>
        <vehicle id="15" x="391.10" y="323.72" angle="123.67" type="DEFAULT_VEHTYPE" speed="0.00" pos="5.10" lane="-11.0.00_0" slope="0.00"/>
        <vehicle id="2" x="334.79" y="49.96" angle="180.03" type="DEFAULT_VEHTYPE" speed="12.86" pos="69.49" lane="-19.0.00_0" slope="0.00"/>
        <vehicle id="3" x="297.32" y="326.64" angle="90.00" type="DEFAULT_VEHTYPE" speed="14.29" pos="129.17" lane="1.0.00_0" slope="0.00"/>
        <vehicle id="4" x="291.27" y="2.00" angle="270.00" type="DEFAULT_VEHTYPE" speed="14.08" pos="34.51" lane="6.0.00_0" slope="0.00"/>
        <vehicle id="5" x="396.38" y="99.10" angle="0.00" type="DEFAULT_VEHTYPE" speed="10.33" pos="89.03" lane="-8.0.00_0" slope="0.00"/>
        <vehicle id="6" x="241.36" y="133.46" angle="270.01" type="DEFAULT_VEHTYPE" speed="14.09" pos="84.37" lane="12.0.00_0" slope="0.00"/>
        <vehicle id="7" x="155.25" y="273.16" angle="53.93" type="DEFAULT_VEHTYPE" speed="7.76" pos="3.37" lane=":167_6_0" slope="0.00"/>
        <vehicle id="8" x="226.84" y="269.13" angle="89.99" type="DEFAULT_VEHTYPE" speed="12.93" pos="59.61" lane="-10.0.00_0" slope="0.00"/>
        <vehicle id="9" x="348.72" y="2.00" angle="270.00" type="DEFAULT_VEHTYPE" speed="11.41" pos="35.26" lane="7.0.00_0" slope="0.00"/>
    </timestep>
    <timestep time="16.00">
        <vehicle id="0" x="-1.98" y="284.53" angle="180.00" type="DEFAULT_VEHTYPE" speed="14.65" pos="34.12" lane="-15.0.00_0" slope="0.00"/>
        <vehicle id="1" x="88.44" y="267.77" angle="180.00" type="DEFAULT_VEHTYPE" speed="12.90" pos="14.69" lane=":184_0_0" slope="0.00"/>
        <vehicle id="10" x="147.69" y="129.47" angle="90.01" type="DEFAULT_VEHTYPE" speed="11.85" pos="46.21" lane="-12.0.00_0" slope="0.00"/>
        <vehicle id="11" x="338.87" y="180.55" angle="0.03" type="DEFAULT_VEHTYPE" speed="10.96" pos="37.60" lane="18.0.00_0" slope="0.00"/>
        <vehicle id="12" x="120.24" y="129.47" angle="90.01" type="DEFAULT_VEHTYPE" speed="6.99" pos="18.76" lane="-12.0.00_0" slope="0.00"/>
        <vehicle id="13" x="28.94" y="-1.94" angle="90.03" type="DEFAULT_VEHTYPE" speed="6.90" pos="18.72" lane="-5.0.00_0" slope="0.00"/>
        <vehicle id="14" x="334.82" y="108.46" angle="180.03" type="DEFAULT_VEHTYPE" speed="3.79" pos="10.99" lane="-19.0.00_0" slope="0.00"/>
        <vehicle id="15" x="391.84" y="322.39" angle="136.57" type="DEFAULT_VEHTYPE" speed="1.52" pos="6.62" lane="-11.0.00_0" slope="0.00"/>
        <vehicle id="16" x="334.87" y="179.84" angle="180.03" type="DEFAULT_VEHTYPE" speed="0.00" pos="5.10" lane="-18.0.00_0" slope="0.00"/>
        <vehicle id="2" x="334.78" y="36.02" angle="180.03" type="DEFAULT_VEHTYPE" speed="13.94" pos="83.43" lane="-19.0.00_0" slope="0.00"/>
        <vehicle id="3" x="311.29" y="326.63" angle="90.00" type="DEFAULT_VEHTYPE" speed="13.97" pos="143.14" lane="1.0.00_0" slope="0.00"/>
        <vehicle id="4" x="276.98" y="2.00" angle="270.00" type="DEFAULT_VEHTYPE" speed="14.29" pos="48.80" lane="6.0.00_0" slope="0.00"/>
        <vehicle id="5" x="396.38" y="109.85" angle="359.96" type="DEFAULT_VEHTYPE" speed="10.75" pos="99.78" lane="-8.0.00_0" slope="0.00"/>
        <vehicle id="6" x="227.47" y="133.46" angle="270.01" type="DEFAULT_VEHTYPE" speed="13.89" pos="98.26" lane="12.0.00_0" slope="0.00"/>
        <vehicle id="7" x="157.84" y="280.72" angle="11.66" type="DEFAULT_VEHTYPE" speed="8.15" pos="11.53" lane=":167_6_0" slope="0.00"/>
        <vehicle id="8" x="238.58" y="269.13" angle="89.99" type="DEFAULT_VEHTYPE" speed="11.74" pos="71.35" lane="-10.0.00_0" slope="0.00"/>
        <vehicle id="9" x="337.29" y="2.00" angle="270.00" type="DEFAULT_VEHTYPE" speed="11.43" pos="10.50" lane=":60_3_0" slope="0.00"/>
    </timestep>
    <timestep time="17.00">
        <vehicle id="0" x="-1.99" y="270.41" angle="180.00" type="DEFAULT_VEHTYPE" speed="14.12" pos="48.24" lane="-15.0.00_0" slope="0.00"/>
        <vehicle id="1" x="88.44" y="255.28" angle="179.99" type="DEFAULT_VEHTYPE" speed="12.49" pos="5.18" lane="-22.0.00_0" slope="0.00"/>
        <vehicle id="10" x="161.28" y="129.46" angle="90.01" type="DEFAULT_VEHTYPE" speed="13.59" pos="59.80" lane="-12.0.00_0" slope="0.00"/>
        <vehicle id="11" x="338.31" y="189.14" angle="353.61" type="DEFAULT_VEHTYPE" speed="8.63" pos="4.24" lane=":139_3_0" slope="0.00"/>
        <vehicle id="12" x="128.99" y="129.47" angle="90.01" type="DEFAULT_VEHTYPE" speed="8.75" pos="27.51" lane="-12.0.00_0" slope="0.00"/>
        <vehicle id="13" x="37.53" y="-1.95" angle="90.03" type="DEFAULT_VEHTYPE" speed="8.59" pos="27.31" lane="-5.0.00_0" slope="0.00"/>
        <vehicle id="14" x="334.82" y="102.24" angle="180.03" type="DEFAULT_VEHTYPE" speed="6.22" pos="17.21" lane="-19.0.00_0" slope="0.00"/>
        <vehicle id="15" x="392.44" y="319.00" angle="164.13" type="DEFAULT_VEHTYPE" speed="3.48" pos="10.10" lane="-11.0.00_0" slope="0.00"/>
        <vehicle id="16" x="334.87" y="178.26" angle="180.03" type="DEFAULT_VEHTYPE" speed="1.58" pos="6.68" lane="-18.0.00_0" slope="0.00"/>
        <vehicle id="2" x="334.78" y="24.55" angle="180.03" type="DEFAULT_VEHTYPE" speed="11.47" pos="94.90" lane="-19.0.00_0" slope="0.00"/>
        <vehicle id="3" x="326.12" y="326.62" angle="90.00" type="DEFAULT_VEHTYPE" speed="14.83" pos="0.43" lane=":43_5_0" slope="0.00"/>
        <vehicle id="4" x="262.84" y="2.00" angle="270.00" type="DEFAULT_VEHTYPE" speed="14.14" pos="62.94" lane="6.0.00_0" slope="0.00"/>
        <vehicle id="5" x="396.37" y="120.66" angle="0.00" type="DEFAULT_VEHTYPE" speed="10.81" pos="110.59" lane="-8.0.00_0" slope="0.00"/>
        <vehicle id="6" x="213.62" y="133.46" angle="270.01" type="DEFAULT_VEHTYPE" speed="13.85" pos="112.11" lane="12.0.00_0" slope="0.00"/>
        <vehicle id="7" x="158.09" y="288.95" angle="0.08" type="DEFAULT_VEHTYPE" speed="8.24" pos="6.54" lane="25.0.00_0" slope="0.00"/>
        <vehicle id="8" x="250.81" y="269.13" angle="89.99" type="DEFAULT_VEHTYPE" speed="12.22" pos="83.57" lane="-10.0.00_0" slope="0.00"/>
        <vehicle id="9" x="326.39" y="2.00" angle="270.00" type="DEFAULT_VEHTYPE" speed="10.90" pos="21.40" lane=":60_3_0" slope="0.00"/>
    </timestep>
    <timestep time="18.00">
        <vehicle id="0" x="-1.99" y="256.11" angle="180.00" type="DEFAULT_VEHTYPE" speed="14.30" pos="62.54" lane="-15.0.00_0" slope="0.00"/>
        <vehicle id="1" x="88.44" y="242.30" angle="179.99" type="DEFAULT_VEHTYPE" speed="12.98" pos="18.16" lane="-22.0.00_0" slope="0.00"/>
        <vehicle id="10" x="175.92" y="129.46" angle="90.01" type="DEFAULT_VEHTYPE" speed="14.64" pos="74.44" lane="-12.0.00_0" slope="0.00"/>
        <vehicle id="11" x="334.02" y="196.56" angle="320.40" type="DEFAULT_VEHTYPE" speed="8.93" pos="4.51" lane=":139_6_0" slope="0.00"/>
        <vehicle id="12" x="139.43" y="129.47" angle="90.01" type="DEFAULT_VEHTYPE" speed="10.43" pos="37.94" lane="-12.0.00_0" slope="0.00"/>
        <vehicle id="13" x="47.83" y="-1.95" angle="90.03" type="DEFAULT_VEHTYPE" speed="10.31" pos="37.61" lane="-5.0.00_0" slope="0.00"/>
        <vehicle id="14" x="334.82" y="94.12" angle="180.03" type="DEFAULT_VEHTYPE" speed="8.12" pos="25.33" lane="-19.0.00_0" slope="0.00"/>
        <vehicle id="15" x="392.43" y="313.57" angle="180.07" type="DEFAULT_VEHTYPE" speed="5.52" pos="5.19" lane="8.0.00_0" slope="0.00"/>
        <vehicle id="16" x="334.87" y="175.18" angle="180.03" type="DEFAULT_VEHTYPE" speed="3.08" pos="9.77" lane="-18.0.00_0" slope="0.00"/>
        <vehicle id="18" x="2.07" y="16.26" angle="0.00" type="DEFAULT_VEHTYPE" speed="0.00" pos="5.10" lane="15.0.00_0" slope="0.00"/>
        <vehicle id="2" x="334.77" y="16.06" angle="180.03" type="DEFAULT_VEHTYPE" speed="8.49" pos="103.39" lane="-19.0.00_0" slope="0.00"/>
        <vehicle id="3" x="340.57" y="326.61" angle="90.03" type="DEFAULT_VEHTYPE" speed="14.46" pos="14.88" lane=":43_5_0" slope="0.00"/>
        <vehicle id="4" x="248.66" y="2.00" angle="270.00" type="DEFAULT_VEHTYPE" speed="14.17" pos="77.12" lane="6.0.00_0" slope="0.00"/>
        <vehicle id="5" x="396.37" y="131.01" angle="0.00" type="DEFAULT_VEHTYPE" speed="10.35" pos="120.94" lane="-8.0.00_0" slope="0.00"/>
        <vehicle id="6" x="199.71" y="133.46" angle="270.01" type="DEFAULT_VEHTYPE" speed="13.91" pos="126.02" lane="12.0.00_0" slope="0.00"/>
        <vehicle id="7" x="158.10" y="299.20" angle="0.08" type="DEFAULT_VEHTYPE" speed="10.25" pos="16.79" lane="25.0.00_0" slope="0.00"/>
        <vehicle id="8" x="263.40" y="269.13" angle="89.99" type="DEFAULT_VEHTYPE" speed="12.59" pos="96.17" lane="-10.0.00_0" slope="0.00"/>
        <vehicle id="9" x="315.23" y="2.00" angle="270.00" type="DEFAULT_VEHTYPE" speed="11.16" pos="10.55" lane="6.0.00_0" slope="0.00"/>
    </timestep>
    <timestep time="19.00">
        <vehicle id="0" x="-2.00" y="241.58" angle="180.00" type="DEFAULT_VEHTYPE" speed="14.53" pos="77.07" lane="-15.0.00_0" slope="0.00"/>
        <vehicle id="1" x="88.45" y="229.65" angle="179.99" type="DEFAULT_VEHTYPE" speed="12.64" pos="30.80" lane="-22.0.00_0" slope="0.00"/>
        <vehicle id="10" x="190.19" y="129.46" angle="90.01" type="DEFAULT_VEHTYPE" speed="14.26" pos="88.70" lane="-12.0.00_0" slope="0.00"/>
        <vehicle id="11" x="324.49" y="199.09" angle="276.59" type="DEFAULT_VEHTYPE" speed="10.09" pos="1.21" lane="4.0.00_0" slope="0.00"/>
        <vehicle id="12" x="152.00" y="129.47" angle="90.01" type="DEFAULT_VEHTYPE" speed="12.58" pos="50.52" lane="-12.0.00_0" slope="0.00"/>
        <vehicle id="13" x="59.88" y="-1.96" angle="90.03" type="DEFAULT_VEHTYPE" speed="12.05" pos="49.66" lane="-5.0.00_0" slope="0.00"/>
        <vehicle id="14" x="334.81" y="84.16" angle="180.03" type="DEFAULT_VEHTYPE" speed="9.97" pos="35.29" lane="-19.0.00_0" slope="0.00"/>
        <vehicle id="15" x="392.42" y="305.64" angle="180.08" type="DEFAULT_VEHTYPE" speed="7.94" pos="13.12" lane="8.0.00_0" slope="0.00"/>
        <vehicle id="16" x="334.86" y="170.75" angle="180.03" type="DEFAULT_VEHTYPE" speed="4.42" pos="14.19" lane="-18.0.00_0" slope="0.00"/>
        <vehicle id="17" x="334.87" y="179.84" angle="180.03" type="DEFAULT_VEHTYPE" speed="0.00" pos="5.10" lane="-18.0.00_0" slope="0.00"/>
        <vehicle id="18" x="2.07" y="17.69" angle="0.00" type="DEFAULT_VEHTYPE" speed="1.43" pos="6.53" lane="15.0.00_0" slope="0.00"/>
        <vehicle id="2" x="334.77" y="12.05" angle="180.03" type="DEFAULT_VEHTYPE" speed="4.00" pos="107.40" lane="-19.0.00_0" slope="0.00"/>
        <vehicle id="3" x="354.85" y="326.61" angle="90.03" type="DEFAULT_VEHTYPE" speed="14.27" pos="6.56" lane="0.0.00_0" slope="0.00"/>
        <vehicle id="4" x="235.56" y="2.01" angle="270.00" type="DEFAULT_VEHTYPE" speed="13.11" pos="90.22" lane="6.0.00_0" slope="0.00"/>
        <vehicle id="5" x="396.37" y="142.30" angle="0.00" type="DEFAULT_VEHTYPE" speed="11.29" pos="132.23" lane="-8.0.00_0" slope="0.00"/>