<?xml version="1.0" encoding="UTF-8"?>

<!-- generated on Wed Aug 14 12:04:20 2019 by Eclipse SUMO Version 1.2.0
<configuration xmlns:xsi="http://www.w3.org/2001/XMLSchema-instance" xsi:noNamespaceSchemaLocation="http://sumo.dlr.de/xsd/sumoConfiguration.xsd">

    <input>
        <net-file value="Town01.net.xml"/>
        <route-files value="trips.trips.xml"/>
    </input>

    <output>
        <netstate-dump value="test.log"/>
        <fcd-output value="Town02_Car200.log"/>
    </output>

    <time>
        <begin value="0"/>
        <end value="10000"/>
    </time>

</configuration>
-->

<fcd-export xmlns:xsi="http://www.w3.org/2001/XMLSchema-instance" xsi:noNamespaceSchemaLocation="http://sumo.dlr.de/xsd/fcd_file.xsd">
    <timestep time="0.00">
        <vehicle id="0" x="139.95" y="273.12" angle="269.99" type="DEFAULT_VEHTYPE" speed="0.00" pos="5.10" lane="9.0.00_0" slope="0.00"/>
    </timestep>
    <timestep time="1.00">
        <vehicle id="0" x="137.43" y="273.12" angle="269.99" type="DEFAULT_VEHTYPE" speed="2.52" pos="7.62" lane="9.0.00_0" slope="0.00"/>
        <vehicle id="1" x="378.88" y="2.00" angle="270.00" type="DEFAULT_VEHTYPE" speed="0.00" pos="5.10" lane="7.0.00_0" slope="0.00"/>
    </timestep>
    <timestep time="2.00">
        <vehicle id="0" x="133.28" y="273.12" angle="269.99" type="DEFAULT_VEHTYPE" speed="4.15" pos="11.77" lane="9.0.00_0" slope="0.00"/>
        <vehicle id="1" x="376.37" y="2.00" angle="270.00" type="DEFAULT_VEHTYPE" speed="2.51" pos="7.61" lane="7.0.00_0" slope="0.00"/>
        <vehicle id="2" x="338.93" y="287.29" angle="0.03" type="DEFAULT_VEHTYPE" speed="0.00" pos="5.10" lane="16.0.00_0" slope="0.00"/>
    </timestep>
    <timestep time="3.00">
        <vehicle id="0" x="127.58" y="273.12" angle="269.99" type="DEFAULT_VEHTYPE" speed="5.70" pos="17.47" lane="9.0.00_0" slope="0.00"/>
        <vehicle id="1" x="371.75" y="2.00" angle="270.00" type="DEFAULT_VEHTYPE" speed="4.62" pos="12.23" lane="7.0.00_0" slope="0.00"/>
        <vehicle id="2" x="338.93" y="289.31" angle="0.03" type="DEFAULT_VEHTYPE" speed="2.02" pos="7.12" lane="16.0.00_0" slope="0.00"/>
        <vehicle id="3" x="389.29" y="-1.11" angle="79.65" type="DEFAULT_VEHTYPE" speed="0.00" pos="5.10" lane="14.0.00_0" slope="0.00"/>
    </timestep>
    <timestep time="4.00">
        <vehicle id="0" x="119.35" y="273.11" angle="269.99" type="DEFAULT_VEHTYPE" speed="8.23" pos="25.70" lane="9.0.00_0" slope="0.00"/>
        <vehicle id="1" x="365.79" y="2.00" angle="270.00" type="DEFAULT_VEHTYPE" speed="5.96" pos="18.19" lane="7.0.00_0" slope="0.00"/>
        <vehicle id="2" x="338.94" y="293.16" angle="0.03" type="DEFAULT_VEHTYPE" speed="3.85" pos="10.97" lane="16.0.00_0" slope="0.00"/>
        <vehicle id="3" x="391.11" y="-0.22" angle="70.28" type="DEFAULT_VEHTYPE" speed="2.03" pos="7.13" lane="14.0.00_0" slope="0.00"/>
        <vehicle id="4" x="106.58" y="129.47" angle="90.01" type="DEFAULT_VEHTYPE" speed="0.00" pos="5.10" lane="-12.0.00_0" slope="0.00"/>
    </timestep>
    <timestep time="5.00">
        <vehicle id="0" x="109.90" y="273.11" angle="269.99" type="DEFAULT_VEHTYPE" speed="9.44" pos="35.15" lane="9.0.00_0" slope="0.00"/>
        <vehicle id="1" x="358.20" y="2.00" angle="270.00" type="DEFAULT_VEHTYPE" speed="7.59" pos="25.78" lane="7.0.00_0" slope="0.00"/>
        <vehicle id="2" x="338.94" y="299.36" angle="0.03" type="DEFAULT_VEHTYPE" speed="6.19" pos="17.17" lane="16.0.00_0" slope="0.00"/>
        <vehicle id="3" x="394.10" y="2.38" angle="51.76" type="DEFAULT_VEHTYPE" speed="3.98" pos="11.11" lane="14.0.00_0" slope="0.00"/>
        <vehicle id="4" x="108.50" y="129.47" angle="90.01" type="DEFAULT_VEHTYPE" speed="1.92" pos="7.02" lane="-12.0.00_0" slope="0.00"/>
    </timestep>
    <timestep time="6.00">
        <vehicle id="0" x="104.20" y="273.11" angle="269.99" type="DEFAULT_VEHTYPE" speed="5.71" pos="40.85" lane="9.0.00_0" slope="0.00"/>
        <vehicle id="1" x="349.24" y="2.00" angle="270.00" type="DEFAULT_VEHTYPE" speed="8.96" pos="34.74" lane="7.0.00_0" slope="0.00"/>
        <vehicle id="2" x="338.94" y="308.07" angle="0.03" type="DEFAULT_VEHTYPE" speed="8.71" pos="25.88" lane="16.0.00_0" slope="0.00"/>
        <vehicle id="3" x="396.36" y="8.40" angle="16.46" type="DEFAULT_VEHTYPE" speed="6.54" pos="17.66" lane="14.0.00_0" slope="0.00"/>
        <vehicle id="4" x="112.14" y="129.47" angle="90.01" type="DEFAULT_VEHTYPE" speed="3.64" pos="10.66" lane="-12.0.00_0" slope="0.00"/>
        <vehicle id="5" x="389.29" y="-1.11" angle="79.65" type="DEFAULT_VEHTYPE" speed="0.00" pos="5.10" lane="14.0.00_0" slope="0.00"/>
        <vehicle id="6" x="107.85" y="326.66" angle="90.00" type="DEFAULT_VEHTYPE" speed="0.00" pos="5.10" lane="2.0.00_0" slope="0.00"/>
    </timestep>
    <timestep time="7.00">
        <vehicle id="0" x="96.79" y="274.14" angle="282.00" type="DEFAULT_VEHTYPE" speed="7.57" pos="4.82" lane=":184_2_0" slope="0.00"/>
        <vehicle id="1" x="342.34" y="3.48" angle="286.29" type="DEFAULT_VEHTYPE" speed="7.19" pos="5.74" lane=":60_2_0" slope="0.00"/>
        <vehicle id="2" x="338.95" y="314.22" angle="0.03" type="DEFAULT_VEHTYPE" speed="6.16" pos="32.03" lane="16.0.00_0" slope="0.00"/>
        <vehicle id="3" x="396.41" y="16.57" angle="0.00" type="DEFAULT_VEHTYPE" speed="8.27" pos="6.50" lane="-8.0.00_0" slope="0.00"/>
        <vehicle id="4" x="117.78" y="129.47" angle="90.01" type="DEFAULT_VEHTYPE" speed="5.64" pos="16.30" lane="-12.0.00_0" slope="0.00"/>
        <vehicle id="5" x="390.59" y="-0.52" angle="73.35" type="DEFAULT_VEHTYPE" speed="1.42" pos="6.52" lane="14.0.00_0" slope="0.00"/>
        <vehicle id="6" x="109.84" y="326.66" angle="90.00" type="DEFAULT_VEHTYPE" speed="1.99" pos="7.09" lane="2.0.00_0" slope="0.00"/>
        <vehicle id="7" x="338.89" y="213.13" angle="0.03" type="DEFAULT_VEHTYPE" speed="0.00" pos="5.10" lane="17.0.00_0" slope="0.00"/>
    </timestep>
    <timestep time="8.00">
        <vehicle id="0" x="92.78" y="280.01" angle="337.24" type="DEFAULT_VEHTYPE" speed="7.50" pos="12.32" lane=":184_2_0" slope="0.00"/>
        <vehicle id="1" x="339.11" y="8.75" angle="336.34" type="DEFAULT_VEHTYPE" speed="6.48" pos="12.23" lane=":60_2_0" slope="0.00"/>
        <vehicle id="2" x="338.24" y="322.68" angle="351.82" type="DEFAULT_VEHTYPE" speed="8.50" pos="4.92" lane=":43_3_0" slope="0.00"/>
        <vehicle id="3" x="396.40" y="26.16" angle="359.89" type="DEFAULT_VEHTYPE" speed="9.59" pos="16.09" lane="-8.0.00_0" slope="0.00"/>
        <vehicle id="4" x="125.87" y="129.47" angle="90.01" type="DEFAULT_VEHTYPE" speed="8.09" pos="24.39" lane="-12.0.00_0" slope="0.00"/>
        <vehicle id="5" x="393.10" y="1.28" angle="58.60" type="DEFAULT_VEHTYPE" speed="3.10" pos="9.63" lane="14.0.00_0" slope="0.00"/>
        <vehicle id="6" x="113.32" y="326.66" angle="90.00" type="DEFAULT_VEHTYPE" speed="3.48" pos="10.57" lane="2.0.00_0" slope="0.00"/>
        <vehicle id="7" x="338.89" y="215.62" angle="0.03" type="DEFAULT_VEHTYPE" speed="2.49" pos="7.59" lane="17.0.00_0" slope="0.00"/>
        <vehicle id="8" x="320.60" y="199.09" angle="270.03" type="DEFAULT_VEHTYPE" speed="0.00" pos="5.10" lane="4.0.00_0" slope="0.00"/>
    </timestep>
    <timestep time="9.00">
        <vehicle id="0" x="92.44" y="287.43" angle="359.95" type="DEFAULT_VEHTYPE" speed="7.45" pos="4.98" lane="21.0.00_0" slope="0.00"/>
        <vehicle id="1" x="338.77" y="15.86" angle="359.55" type="DEFAULT_VEHTYPE" speed="7.13" pos="4.70" lane="19.0.00_0" slope="0.00"/>
        <vehicle id="2" x="332.94" y="328.98" angle="310.52" type="DEFAULT_VEHTYPE" speed="8.58" pos="13.50" lane=":43_3_0" slope="0.00"/>
        <vehicle id="3" x="396.40" y="38.25" angle="0.00" type="DEFAULT_VEHTYPE" speed="12.09" pos="28.18" lane="-8.0.00_0" slope="0.00"/>
        <vehicle id="4" x="136.15" y="129.47" angle="90.01" type="DEFAULT_VEHTYPE" speed="10.28" pos="34.67" lane="-12.0.00_0" slope="0.00"/>
        <vehicle id="5" x="395.68" y="5.22" angle="33.76" type="DEFAULT_VEHTYPE" speed="4.76" pos="14.39" lane="14.0.00_0" slope="0.00"/>
        <vehicle id="6" x="118.81" y="326.66" angle="90.00" type="DEFAULT_VEHTYPE" speed="5.49" pos="16.06" lane="2.0.00_0" slope="0.00"/>
        <vehicle id="7" x="338.90" y="219.98" angle="0.03" type="DEFAULT_VEHTYPE" speed="4.36" pos="11.95" lane="17.0.00_0" slope="0.00"/>
        <vehicle id="8" x="318.28" y="199.09" angle="270.03" type="DEFAULT_VEHTYPE" speed="2.32" pos="7.42" lane="4.0.00_0" slope="0.00"/>
        <vehicle id="9" x="6.04" y="330.15" angle="264.42" type="DEFAULT_VEHTYPE" speed="0.00" pos="5.10" lane="13.0.00_0" slope="0.00"/>
    </timestep>
    <timestep time="10.00">
        <vehicle id="0" x="92.44" y="296.23" angle="359.98" type="DEFAULT_VEHTYPE" speed="8.79" pos="13.77" lane="21.0.00_0" slope="0.00"/>
        <vehicle id="1" x="338.78" y="25.49" angle="0.03" type="DEFAULT_VEHTYPE" speed="9.64" pos="14.33" lane="19.0.00_0" slope="0.00"/>
        <vehicle id="10" x="2.07" y="16.26" angle="0.00" type="DEFAULT_VEHTYPE" speed="0.00" pos="5.10" lane="15.0.00_0" slope="0.00"/>
        <vehicle id="2" x="323.90" y="330.62" angle="275.05" type="DEFAULT_VEHTYPE" speed="9.31" pos="1.79" lane="-1.0.00_0" slope="0.00"/>
        <vehicle id="3" x="396.39" y="52.60" angle="359.89" type="DEFAULT_VEHTYPE" speed="14.36" pos="42.53" lane="-8.0.00_0" slope="0.00"/>
        <vehicle id="4" x="148.32" y="129.47" angle="90.01" type="DEFAULT_VEHTYPE" speed="12.17" pos="46.84" lane="-12.0.00_0" slope="0.00"/>
        <vehicle id="5" x="396.41" y="11.54" angle="2.99" type="DEFAULT_VEHTYPE" speed="6.51" pos="1.47" lane="-8.0.00_0" slope="0.00"/>
        <vehicle id="6" x="125.79" y="326.66" angle="90.00" type="DEFAULT_VEHTYPE" speed="6.97" pos="23.03" lane="2.0.00_0" slope="0.00"/>
        <vehicle id="7" x="338.90" y="226.88" angle="0.03" type="DEFAULT_VEHTYPE" speed="6.90" pos="18.85" lane="17.0.00_0" slope="0.00"/>
        <vehicle id="8" x="313.49" y="199.10" angle="270.03" type="DEFAULT_VEHTYPE" speed="4.78" pos="12.21" lane="4.0.00_0" slope="0.00"/>
        <vehicle id="9" x="3.87" y="329.28" angle="254.58" type="DEFAULT_VEHTYPE" speed="2.34" pos="7.44" lane="13.0.00_0" slope="0.00"/>
    </timestep>
    <timestep time="11.00">
        <vehicle id="0" x="92.43" y="307.07" angle="359.98" type="DEFAULT_VEHTYPE" speed="10.85" pos="24.62" lane="21.0.00_0" slope="0.00"/>
        <vehicle id="1" x="338.78" y="37.28" angle="0.03" type="DEFAULT_VEHTYPE" speed="11.79" pos="26.12" lane="19.0.00_0" slope="0.00"/>
        <vehicle id="10" x="2.07" y="17.69" angle="0.00" type="DEFAULT_VEHTYPE" speed="1.43" pos="6.53" lane="15.0.00_0" slope="0.00"/>
        <vehicle id="11" x="139.92" y="330.66" angle="270.00" type="DEFAULT_VEHTYPE" speed="0.00" pos="5.10" lane="-2.0.00_0" slope="0.00"/>
        <vehicle id="2" x="312.87" y="330.63" angle="270.00" type="DEFAULT_VEHTYPE" speed="11.04" pos="12.82" lane="-1.0.00_0" slope="0.00"/>
        <vehicle id="3" x="396.39" y="66.83" angle="0.00" type="DEFAULT_VEHTYPE" speed="14.23" pos="56.76" lane="-8.0.00_0" slope="0.00"/>
        <vehicle id="4" x="162.30" y="129.46" angle="90.01" type="DEFAULT_VEHTYPE" speed="13.98" pos="60.82" lane="-12.0.00_0" slope="0.00"/>
        <vehicle id="5" x="396.41" y="20.29" angle="0.00" type="DEFAULT_VEHTYPE" speed="8.75" pos="10.22" lane="-8.0.00_0" slope="0.00"/>
        <vehicle id="6" x="134.16" y="326.66" angle="90.00" type="DEFAULT_VEHTYPE" speed="8.37" pos="31.41" lane="2.0.00_0" slope="0.00"/>
        <vehicle id="7" x="338.91" y="236.00" angle="0.03" type="DEFAULT_VEHTYPE" speed="9.12" pos="27.97" lane="17.0.00_0" slope="0.00"/>
        <vehicle id="8" x="306.98" y="199.10" angle="270.03" type="DEFAULT_VEHTYPE" speed="6.51" pos="18.72" lane="4.0.00_0" slope="0.00"/>
        <vehicle id="9" x="0.85" y="327.05" angle="236.64" type="DEFAULT_VEHTYPE" speed="3.78" pos="11.22" lane="13.0.00_0" slope="0.00"/>
    </timestep>
    <timestep time="12.00">
        <vehicle id="0" x="92.43" y="313.70" angle="359.98" type="DEFAULT_VEHTYPE" speed="6.63" pos="31.25" lane="21.0.00_0" slope="0.00"/>
        <vehicle id="1" x="338.79" y="49.09" angle="0.03" type="DEFAULT_VEHTYPE" speed="11.81" pos="37.93" lane="19.0.00_0" slope="0.00"/>
        <vehicle id="10" x="2.07" y="21.73" angle="0.00" type="DEFAULT_VEHTYPE" speed="4.03" pos="10.57" lane="15.0.00_0" slope="0.00"/>
        <vehicle id="11" x="137.93" y="330.66" angle="270.00" type="DEFAULT_VEHTYPE" speed="1.99" pos="7.09" lane="-2.0.00_0" slope="0.00"/>
        <vehicle id="12" x="391.20" y="5.22" angle="194.33" type="DEFAULT_VEHTYPE" speed="0.00" pos="5.10" lane="-14.0.00_0" slope="0.00"/>
        <vehicle id="2" x="300.33" y="330.63" angle="270.00" type="DEFAULT_VEHTYPE" speed="12.54" pos="25.36" lane="-1.0.00_0" slope="0.00"/>
        <vehicle id="3" x="396.38" y="81.86" angle="0.00" type="DEFAULT_VEHTYPE" speed="15.03" pos="71.79" lane="-8.0.00_0" slope="0.00"/>
        <vehicle id="4" x="175.90" y="129.46" angle="90.01" type="DEFAULT_VEHTYPE" speed="13.60" pos="74.42" lane="-12.0.00_0" slope="0.00"/>
        <vehicle id="5" x="396.40" y="31.36" angle="0.00" type="DEFAULT_VEHTYPE" speed="11.07" pos="21.29" lane="-8.0.00_0" slope="0.00"/>
        <vehicle id="6" x="144.39" y="326.66" angle="90.00" type="DEFAULT_VEHTYPE" speed="10.23" pos="41.64" lane="2.0.00_0" slope="0.00"/>
        <vehicle id="7" x="338.91" y="247.56" angle="0.03" type="DEFAULT_VEHTYPE" speed="11.55" pos="39.53" lane="17.0.00_0" slope="0.00"/>
        <vehicle id="8" x="298.68" y="199.10" angle="270.03" type="DEFAULT_VEHTYPE" speed="8.30" pos="27.02" lane="4.0.00_0" slope="0.00"/>
        <vehicle id="9" x="-1.80" y="321.53" angle="202.58" type="DEFAULT_VEHTYPE" speed="6.23" pos="17.45" lane="13.0.00_0" slope="0.00"/>
    </timestep>
    <timestep time="13.00">
        <vehicle id="0" x="93.09" y="321.78" angle="7.62" type="DEFAULT_VEHTYPE" speed="8.13" pos="3.89" lane=":77_2_0" slope="0.00"/>
        <vehicle id="1" x="338.80" y="61.91" angle="0.03" type="DEFAULT_VEHTYPE" speed="12.82" pos="50.75" lane="19.0.00_0" slope="0.00"/>
        <vehicle id="10" x="2.07" y="27.93" angle="0.00" type="DEFAULT_VEHTYPE" speed="6.21" pos="16.77" lane="15.0.00_0" slope="0.00"/>
        <vehicle id="11" x="134.08" y="330.66" angle="270.00" type="DEFAULT_VEHTYPE" speed="3.84" pos="10.93" lane="-2.0.00_0" slope="0.00"/>
        <vehicle id="12" x="390.28" y="4.12" angle="205.14" type="DEFAULT_VEHTYPE" speed="1.44" pos="6.54" lane="-14.0.00_0" slope="0.00"/>
        <vehicle id="13" x="334.83" y="114.35" angle="180.03" type="DEFAULT_VEHTYPE" speed="0.00" pos="5.10" lane="-19.0.00_0" slope="0.00"/>
        <vehicle id="2" x="286.30" y="330.64" angle="270.00" type="DEFAULT_VEHTYPE" speed="14.02" pos="39.39" lane="-1.0.00_0" slope="0.00"/>
        <vehicle id="3" x="396.38" y="96.38" angle="0.00" type="DEFAULT_VEHTYPE" speed="14.53" pos="86.31" lane="-8.0.00_0" slope="0.00"/>
        <vehicle id="4" x="190.14" y="129.46" angle="90.01" type="DEFAULT_VEHTYPE" speed="14.24" pos="88.65" lane="-12.0.00_0" slope="0.00"/>
        <vehicle id="5" x="396.40" y="41.92" angle="0.00" type="DEFAULT_VEHTYPE" speed="10.56" pos="31.85" lane="-8.0.00_0" slope="0.00"/>
        <vehicle id="6" x="156.88" y="326.65" angle="90.02" type="DEFAULT_VEHTYPE" speed="12.49" pos="11.86" lane=":26_5_0" slope="0.00"/>
        <vehicle id="7" x="338.92" y="259.51" angle="0.03" type="DEFAULT_VEHTYPE" speed="11.95" pos="51.48" lane="17.0.00_0" slope="0.00"/>
        <vehicle id="8" x="288.69" y="199.11" angle="270.03" type="DEFAULT_VEHTYPE" speed="9.99" pos="37.01" lane="4.0.00_0" slope="0.00"/>
        <vehicle id="9" x="-1.97" y="313.54" angle="180.00" type="DEFAULT_VEHTYPE" speed="8.09" pos="5.11" lane="-15.0.00_0" slope="0.00"/>
    </timestep>
    <timestep time="14.00">
        <vehicle id="0" x="99.70" y="326.29" angle="69.01" type="DEFAULT_VEHTYPE" speed="8.40" pos="12.30" lane=":77_2_0" slope="0.00"/>
        <vehicle id="1" x="338.80" y="73.89" angle="0.03" type="DEFAULT_VEHTYPE" speed="11.98" pos="62.73" lane="19.0.00_0" slope="0.00"/>
        <vehicle id="10" x="2.07" y="36.57" angle="0.00" type="DEFAULT_VEHTYPE" speed="8.63" pos="25.41" lane="15.0.00_0" slope="0.00"/>
        <vehicle id="11" x="127.69" y="330.66" angle="270.00" type="DEFAULT_VEHTYPE" speed="6.39" pos="17.33" lane="-2.0.00_0" slope="0.00"/>
        <vehicle id="12" x="386.79" y="2.29" angle="238.28" type="DEFAULT_VEHTYPE" speed="3.98" pos="10.52" lane="-14.0.00_0" slope="0.00"/>
        <vehicle id="13" x="334.83" y="112.97" angle="180.03" type="DEFAULT_VEHTYPE" speed="1.38" pos="6.48" lane="-19.0.00_0" slope="0.00"/>
        <vehicle id="2" x="272.47" y="330.64" angle="270.00" type="DEFAULT_VEHTYPE" speed="13.83" pos="53.22" lane="-1.0.00_0" slope="0.00"/>
        <vehicle id="3" x="396.37" y="110.21" angle="359.94" type="DEFAULT_VEHTYPE" speed="13.83" pos="100.14" lane="-8.0.00_0" slope="0.00"/>
        <vehicle id="4" x="203.58" y="129.46" angle="90.01" type="DEFAULT_VEHTYPE" speed="13.45" pos="102.10" lane="-12.0.00_0" slope="0.00"/>
        <vehicle id="5" x="396.39" y="52.67" angle="359.89" type="DEFAULT_VEHTYPE" speed="10.75" pos="42.60" lane="-8.0.00_0" slope="0.00"/>
        <vehicle id="6" x="170.35" y="326.65" angle="90.01" type="DEFAULT_VEHTYPE" speed="13.48" pos="2.21" lane="1.0.00_0" slope="0.00"/>
        <vehicle id="7" x="338.92" y="270.83" angle="0.03" type="DEFAULT_VEHTYPE" speed="11.33" pos="11.26" lane=":111_2_0" slope="0.00"/>
        <vehicle id="8" x="276.43" y="199.11" angle="270.03" type="DEFAULT_VEHTYPE" speed="12.26" pos="49.27" lane="4.0.00_0" slope="0.00"/>
        <vehicle id="9" x="-1.98" y="302.89" angle="180.11" type="DEFAULT_VEHTYPE" speed="10.65" pos="15.76" lane="-15.0.00_0" slope="0.00"/>
    </timestep>
    <timestep time="15.00">
        <vehicle id="0" x="107.29" y="326.66" angle="89.36" type="DEFAULT_VEHTYPE" speed="7.61" pos="4.54" lane="2.0.00_0" slope="0.00"/>
        <vehicle id="1" x="338.81" y="86.12" angle="0.03" type="DEFAULT_VEHTYPE" speed="12.23" pos="74.96" lane="19.0.00_0" slope="0.00"/>
        <vehicle id="10" x="2.07" y="47.23" angle="0.00" type="DEFAULT_VEHTYPE" speed="10.67" pos="36.07" lane="15.0.00_0" slope="0.00"/>
        <vehicle id="11" x="119.88" y="330.66" angle="270.00" type="DEFAULT_VEHTYPE" speed="7.81" pos="25.13" lane="-2.0.00_0" slope="0.00"/>
        <vehicle id="12" x="380.41" y="2.00" angle="269.51" type="DEFAULT_VEHTYPE" speed="6.41" pos="3.57" lane="7.0.00_0" slope="0.00"/>
        <vehicle id="13" x="334.82" y="109.90" angle="180.03" type="DEFAULT_VEHTYPE" speed="3.07" pos="9.55" lane="-19.0.00_0" slope="0.00"/>
        <vehicle id="14" x="391.20" y="5.22" angle="194.33" type="DEFAULT_VEHTYPE" speed="0.00" pos="5.10" lane="-14.0.00_0" slope="0.00"/>
        <vehicle id="2" x="258.75" y="330.64" angle="270.00" type="DEFAULT_VEHTYPE" speed="13.72" pos="66.94" lane="-1.0.00_0" slope="0.00"/>
        <vehicle id="3" x="396.37" y="124.52" angle="0.00" type="DEFAULT_VEHTYPE" speed="14.30" pos="114.45" lane="-8.0.00_0" slope="0.00"/>
        <vehicle id="4" x="217.05" y="129.46" angle="90.01" type="DEFAULT_VEHTYPE" speed="13.47" pos="115.57" lane="-12.0.00_0" slope="0.00"/>
        <vehicle id="5" x="396.39" y="63.02" angle="0.00" type="DEFAULT_VEHTYPE" speed="10.35" pos="52.95" lane="-8.0.00_0" slope="0.00"/>
        <vehicle id="6" x="184.52" y="326.65" angle="90.00" type="DEFAULT_VEHTYPE" speed="14.17" pos="16.38" lane="1.0.00_0" slope="0.00"/>
        <vehicle id="7" x="338.93" y="281.91" angle="0.03" type="DEFAULT_VEHTYPE" speed="11.08" pos="22.34" lane=":111_2_0" slope="0.00"/>
        <vehicle id="8" x="264.52" y="199.12" angle="270.03" type="DEFAULT_VEHTYPE" speed="11.91" pos="61.18" lane="4.0.00_0" slope="0.00"/>
        <vehicle id="9" x="-1.98" y="291.06" angle="180.00" type="DEFAULT_VEHTYPE" speed="11.83" pos="27.59" lane="-15.0.00_0" slope="0.00"/>
    </timestep>
    <timestep time="16.00">
        <vehicle id="0" x="117.18" y="326.66" angle="90.00" type="DEFAULT_VEHTYPE" speed="9.89" pos="14.43" lane="2.0.00_0" slope="0.00"/>
        <vehicle id="1" x="338.82" y="98.55" angle="0.03" type="DEFAULT_VEHTYPE" speed="12.43" pos="87.39" lane="19.0.00_0" slope="0.00"/>
        <vehicle id="10" x="2.08" y="60.32" angle="0.00" type="DEFAULT_VEHTYPE" speed="13.09" pos="49.16" lane="15.0.00_0" slope="0.00"/>
        <vehicle id="11" x="110.43" y="330.66" angle="270.00" type="DEFAULT_VEHTYPE" speed="9.45" pos="34.59" lane="-2.0.00_0" slope="0.00"/>
        <vehicle id="12" x="372.25" y="2.00" angle="270.00" type="DEFAULT_VEHTYPE" speed="8.16" pos="11.73" lane="7.0.00_0" slope="0.00"/>
        <vehicle id="13" x="334.82" y="105.11" angle="180.03" type="DEFAULT_VEHTYPE" speed="4.79" pos="14.34" lane="-19.0.00_0" slope="0.00"/>
        <vehicle id="14" x="390.09" y="3.97" angle="207.34" type="DEFAULT_VEHTYPE" speed="1.69" pos="6.79" lane="-14.0.00_0" slope="0.00"/>
        <vehicle id="16" x="74.34" y="330.65" angle="269.98" type="DEFAULT_VEHTYPE" speed="0.00" pos="5.10" lane="-3.0.00_0" slope="0.00"/>
        <vehicle id="2" x="244.89" y="330.64" angle="270.00" type="DEFAULT_VEHTYPE" speed="13.85" pos="80.80" lane="-1.0.00_0" slope="0.00"/>
        <vehicle id="3" x="396.37" y="139.31" angle="0.00" type="DEFAULT_VEHTYPE" speed="14.79" pos="129.24" lane="-8.0.00_0" slope="0.00"/>
        <vehicle id="4" x="230.86" y="129.46" angle="90.01" type="DEFAULT_VEHTYPE" speed="13.80" pos="129.37" lane="-12.0.00_0" slope="0.00"/>
        <vehicle id="5" x="396.39" y="73.74" angle="359.98" type="DEFAULT_VEHTYPE" speed="10.72" pos="63.67" lane="-8.0.00_0" slope="0.00"/>
        <vehicle id="6" x="198.93" y="326.65" angle="90.00" type="DEFAULT_VEHTYPE" speed="14.40" pos="30.79" lane="1.0.00_0" slope="0.00"/>
        <vehicle id="7" x="338.94" y="293.63" angle="0.03" type="DEFAULT_VEHTYPE" speed="11.73" pos="11.44" lane="16.0.00_0" slope="0.00"/>
        <vehicle id="8" x="251.88" y="199.13" angle="270.03" type="DEFAULT_VEHTYPE" speed="12.64" pos="73.82" lane="4.0.00_0" slope="0.00"/>
        <vehicle id="9" x="-1.99" y="279.77" angle="180.06" type="DEFAULT_VEHTYPE" speed="11.30" pos="38.88" lane="-15.0.00_0" slope="0.00"/>
    </timestep>
    <timestep time="17.00">
        <vehicle id="0" x="129.25" y="326.66" angle="90.00" type="DEFAULT_VEHTYPE" speed="12.07" pos="26.49" lane="2.0.00_0" slope="0.00"/>
        <vehicle id="1" x="338.83" y="110.87" angle="0.03" type="DEFAULT_VEHTYPE" speed="12.32" pos="99.71" lane="19.0.00_0" slope="0.00"/>
        <vehicle id="10" x="2.08" y="74.35" angle="0.00" type="DEFAULT_VEHTYPE" speed="14.02" pos="63.19" lane="15.0.00_0" slope="0.00"/>
        <vehicle id="11" x="100.88" y="330.42" angle="267.26" type="DEFAULT_VEHTYPE" speed="9.56" pos="1.89" lane=":77_1_0" slope="0.00"/>
        <vehicle id="12" x="361.95" y="2.00" angle="270.00" type="DEFAULT_VEHTYPE" speed="10.29" pos="22.03" lane="7.0.00_0" slope="0.00"/>
        <vehicle id="13" x="334.82" y="98.44" angle="180.03" type="DEFAULT_VEHTYPE" speed="6.67" pos="21.01" lane="-19.0.00_0" slope="0.00"/>
        <vehicle id="14" x="387.33" y="2.42" angle="233.60" type="DEFAULT_VEHTYPE" speed="3.19" pos="9.97" lane="-14.0.00_0" slope="0.00"/>
        <vehicle id="16" x="72.45" y="330.65" angle="269.98" type="DEFAULT_VEHTYPE" speed="1.89" pos="6.99" lane="-3.0.00_0" slope="0.00"/>
        <vehicle id="17" x="173.24" y="326.65" angle="90.00" type="DEFAULT_VEHTYPE" speed="0.00" pos="5.10" lane="1.0.00_0" slope="0.00"/>
        <vehicle id="2" x="231.42" y="330.65" angle="270.00" type="DEFAULT_VEHTYPE" speed="13.48" pos="94.27" lane="-1.0.00_0" slope="0.00"/>
        <vehicle id="3" x="396.37" y="154.04" angle="0.00" type="DEFAULT_VEHTYPE" speed="14.73" pos="143.97" lane="-8.0.00_0" slope="0.00"/>
        <vehicle id="4" x="244.25" y="129.46" angle="90.01" type="DEFAULT_VEHTYPE" speed="13.39" pos="142.77" lane="-12.0.00_0" slope="0.00"/>
        <vehicle id="5" x="396.38" y="84.25" angle="0.00" type="DEFAULT_VEHTYPE" speed="10.51" pos="74.18" lane="-8.0.00_0" slope="0.00"/>
        <vehicle id="6" x="212.19" y="326.65" angle="90.00" type="DEFAULT_VEHTYPE" speed="13.26" pos="44.05" lane="1.0.00_0" slope="0.00"/>
        <vehicle id="7" x="338.94" y="305.06" angle="0.03" type="DEFAULT_VEHTYPE" speed="11.43" pos="22.87" lane="16.0.00_0" slope="0.00"/>
        <vehicle id="8" x="239.97" y="199.13" angle="270.03" type="DEFAULT_VEHTYPE" speed="11.91" pos="85.73" lane="4.0.00_0" slope="0.00"/>
        <vehicle id="9" x="-1.99" y="268.29" angle="180.00" type="DEFAULT_VEHTYPE" speed="11.48" pos="50.36" lane="-15.0.00_0" slope="0.00"/>
    </timestep>
    <timestep time="18.00">
        <vehicle id="0" x="138.51" y="326.66" angle="90.00" type="DEFAULT_VEHTYPE" speed="9.25" pos="35.75" lane="2.0.00_0" slope="0.00"/>
        <vehicle id="1" x="338.83" y="123.53" angle="0.05" type="DEFAULT_VEHTYPE" speed="12.67" pos="4.08" lane=":94_2_0" slope="0.00"/>
        <vehicle id="10" x="2.08" y="88.25" angle="0.00" type="DEFAULT_VEHTYPE" speed="13.91" pos="77.09" lane="15.0.00_0" slope="0.00"/>
        <vehicle id="11" x="95.93" y="329.56" angle="260.15" type="DEFAULT_VEHTYPE" speed="5.06" pos="6.94" lane=":77_1_0" slope="0.00"/>
        <vehicle id="12" x="350.34" y="2.00" angle="270.00" type="DEFAULT_VEHTYPE" speed="11.61" pos="33.64" lane="7.0.00_0" slope="0.00"/>
        <vehicle id="13" x="334.81" y="90.35" angle="180.03" type="DEFAULT_VEHTYPE" speed="8.09" pos="29.10" lane="-19.0.00_0" slope="0.00"/>
        <vehicle id="14" x="382.13" y="2.00" angle="265.77" type="DEFAULT_VEHTYPE" speed="5.24" pos="1.85" lane="7.0.00_0" slope="0.00"/>
        <vehicle id="16" x="68.22" y="330.65" angle="269.98" type="DEFAULT_VEHTYPE" speed="4.23" pos="11.22" lane="-3.0.00_0" slope="0.00"/>
        <vehicle id="17" x="174.77" y="326.65" angle="90.00" type="DEFAULT_VEHTYPE" speed="1.53" pos="6.63" lane="1.0.00_0" slope="0.00"/>
        <vehicle id="18" x="172.33" y="269.12" angle="89.99" type="DEFAULT_VEHTYPE" speed="0.00" pos="5.10" lane="-10.0.00_0" slope="0.00"/>
        <vehicle id="2" x="218.02" y="330.65" angle="270.00" type="DEFAULT_VEHTYPE" speed="13.40" pos="107.67" lane="-1.0.00_0" slope="0.00"/>
        <vehicle id="3" x="396.36" y="168.81" angle="0.00" type="DEFAULT_VEHTYPE" speed="14.78" pos="158.74" lane="-8.0.00_0" slope="0.00"/>
        <vehicle id="4" x="257.68" y="129.46" angle="90.01" type="DEFAULT_VEHTYPE" speed="13.42" pos="156.19" lane="-12.0.00_0" slope="0.00"/>
        <vehicle id="5" x="396.38" y="95.74" angle="0.00" type="DEFAULT_VEHTYPE" speed="11.49" pos="85.67" lane="-8.0.00_0" slope="0.00"/>
        <vehicle id="6" x="225.54" y="326.65" angle="90.00" type="DEFAULT_VEHTYPE" speed="13.35" pos="57.40" lane="1.0.00_0" slope="0.00"/>
        <vehicle id="7" x="338.95" y="312.66" angle="0.03" type="DEFAULT_VEHTYPE" speed="7.60" pos="30.47" lane="16.0.00_0" slope="0.00"/>
        <vehicle id="8" x="227.34" y="199.14" angle="270.03" type="DEFAULT_VEHTYPE" speed="12.62" pos="98.36" lane="4.0.00_0" slope="0.00"/>
        <vehicle id="9" x="-1.99" y="256.58" angle="180.00" type="DEFAULT_VEHTYPE" speed="11.71" pos="62.07" lane="-15.0.00_0" slope="0.00"/>
    </timestep>
    <timestep time="19.00">
        <vehicle id="0" x="149.42" y="326.66" angle="90.02" type="DEFAULT_VEHTYPE" speed="10.91" pos="4.40" lane=":26_5_0" slope="0.00"/>
        <vehicle id="1" x="338.84" y="136.05" angle="0.05" type="DEFAULT_VEHTYPE" speed="12.51" pos="16.60" lane=":94_2_0" slope="0.00"/>
        <vehicle id="10" x="2.07" y="102.78" angle="0.00" type="DEFAULT_VEHTYPE" speed="14.53" pos="91.62" lane="15.0.00_0" slope="0.00"/>
        <vehicle id="11" x="90.82" y="325.72" angle="230.08" type="DEFAULT_VEHTYPE" speed="6.57" pos="4.63" lane=":77_6_0" slope="0.00"/>
        <vehicle id="12" x="337.18" y="2.00" angle="270.00" type="DEFAULT_VEHTYPE" speed="13.16" pos="10.61" lane=":60_3_0" slope="0.00"/>
        <vehicle id="13" x="334.81" y="80.16" angle="180.03" type="DEFAULT_VEHTYPE" speed="10.19" pos="39.29" lane="-19.0.00_0" slope="0.00"/>
        <vehicle id="14" x="375.44" y="2.00" angle="270.00" type="DEFAULT_VEHTYPE" speed="6.69" pos="8.54" lane="7.0.00_0" slope="0.00"/>
        <vehicle id="16" x="62.66" y="330.65" angle="269.98" type="DEFAULT_VEHTYPE" speed="5.56" pos="16.78" lane="-3.0.00_0" slope="0.00"/>
        <vehicle id="17" x="178.54" y="326.65" angle="90.00" type="DEFAULT_VEHTYPE" speed="3.76" pos="10.39" lane="1.0.00_0" slope="0.00"/>
        <vehicle id="18" x="174.21" y="269.12" angle="89.99" type="DEFAULT_VEHTYPE" speed="1.88" pos="6.98" lane="-10.0.00_0" slope="0.00"/>
        <vehicle id="19" x="106.78" y="-1.98" angle="90.00" type="DEFAULT_VEHTYPE" speed="0.00" pos="5.10" lane="-6.0.00_0" slope="0.00"/>
        <vehicle id="2" x="204.55" y="330.65" angle="270.00" type="DEFAULT_VEHTYPE" speed="13.47" pos="121.14" lane="-1.0.00_0" slope="0.00"/>
        <vehicle id="3" x="396.36" y="183.70" angle="0.00" type="DEFAULT_VEHTYPE" speed="14.89" pos="173.63" lane="-8.0.00_0" slope="0.00"/>
        <vehicle id="4" x="271.53" y="129.45" angle="90.01" type="DEFAULT_VEHTYPE" speed="13.85" pos="170.04" lane="-12.0.00_0" slope="0.00"/>
        <vehicle id="5" x="396.38" y="106.58" angle="0.00" type="DEFAULT_VEHTYPE" speed="10.85" pos="96.51" lane="-8.0.00_0" slope="0.00"/>
        <vehicle id="6" x="238.83" y="326.65" angle="90.00" type="DEFAULT_VEHTYPE" speed="13.29" pos="70.69" lane="1.0.00_0" slope="0.00"/>
        <vehicle id="7" x="338.95" y="317.31" angle="0.03" type="DEFAULT_VEHTYPE" speed="4.65" pos="35.12" lane="16.0.00_0" slope="0.00"/>
        <vehicle id="8" x="214.41" y="199.14" angle="270.03" type="DEFAULT_VEHTYPE" speed="12.94" pos="111.29" lane="4.0.00_0" slope="0.00"/>
        <vehicle id="9" x="-2.00" y="245.27" angle="180.00" type="DEFAULT_VEHTYPE" speed="11.31" pos="73.38" lane="-15.0.00_0" slope="0.00"/>
    </timestep>
    <timestep time="20.00">