<?xml version="1.0" encoding="UTF-8"?>

<!-- generated on Wed Aug 14 12:02:37 2019 by Eclipse SUMO Version 1.2.0
<configuration xmlns:xsi="http://www.w3.org/2001/XMLSchema-instance" xsi:noNamespaceSchemaLocation="http://sumo.dlr.de/xsd/sumoConfiguration.xsd">

    <input>
        <net-file value="Town01.net.xml"/>
        <route-files value="trips.trips.xml"/>
    </input>

    <output>
        <netstate-dump value="test.log"/>
        <fcd-output value="Town02_Car50_4.log"/>
    </output>

    <time>
        <begin value="0"/>
        <end value="10000"/>
    </time>

</configuration>
-->

<fcd-export xmlns:xsi="http://www.w3.org/2001/XMLSchema-instance" xsi:noNamespaceSchemaLocation="http://sumo.dlr.de/xsd/fcd_file.xsd">
    <timestep time="0.00">
        <vehicle id="0" x="-1.97" y="313.55" angle="180.00" type="DEFAULT_VEHTYPE" speed="0.00" pos="5.10" lane="-15.0.00_0" slope="0.00"/>
    </timestep>
    <timestep time="1.00">
        <vehicle id="0" x="-1.97" y="311.00" angle="180.00" type="DEFAULT_VEHTYPE" speed="2.55" pos="7.65" lane="-15.0.00_0" slope="0.00"/>
        <vehicle id="1" x="338.85" y="148.06" angle="0.03" type="DEFAULT_VEHTYPE" speed="0.00" pos="5.10" lane="18.0.00_0" slope="0.00"/>
    </timestep>
    <timestep time="2.00">
        <vehicle id="0" x="-1.97" y="305.92" angle="180.05" type="DEFAULT_VEHTYPE" speed="5.08" pos="12.73" lane="-15.0.00_0" slope="0.00"/>
        <vehicle id="1" x="338.85" y="150.18" angle="0.03" type="DEFAULT_VEHTYPE" speed="2.12" pos="7.22" lane="18.0.00_0" slope="0.00"/>
        <vehicle id="2" x="2.07" y="16.26" angle="0.00" type="DEFAULT_VEHTYPE" speed="0.00" pos="5.10" lane="15.0.00_0" slope="0.00"/>
    </timestep>
    <timestep time="3.00">
        <vehicle id="0" x="-1.98" y="298.84" angle="180.00" type="DEFAULT_VEHTYPE" speed="7.07" pos="19.81" lane="-15.0.00_0" slope="0.00"/>
        <vehicle id="1" x="338.86" y="154.73" angle="0.03" type="DEFAULT_VEHTYPE" speed="4.55" pos="11.77" lane="18.0.00_0" slope="0.00"/>
        <vehicle id="2" x="2.07" y="17.69" angle="0.00" type="DEFAULT_VEHTYPE" speed="1.43" pos="6.53" lane="15.0.00_0" slope="0.00"/>
        <vehicle id="3" x="16.19" y="326.63" angle="89.98" type="DEFAULT_VEHTYPE" speed="0.00" pos="5.10" lane="3.0.00_0" slope="0.00"/>
    </timestep>
    <timestep time="4.00">
        <vehicle id="0" x="-1.98" y="289.59" angle="180.00" type="DEFAULT_VEHTYPE" speed="9.25" pos="29.06" lane="-15.0.00_0" slope="0.00"/>
        <vehicle id="1" x="338.86" y="161.10" angle="0.03" type="DEFAULT_VEHTYPE" speed="6.38" pos="18.15" lane="18.0.00_0" slope="0.00"/>
        <vehicle id="2" x="2.07" y="21.73" angle="0.00" type="DEFAULT_VEHTYPE" speed="4.03" pos="10.57" lane="15.0.00_0" slope="0.00"/>
        <vehicle id="3" x="17.57" y="326.63" angle="89.98" type="DEFAULT_VEHTYPE" speed="1.38" pos="6.48" lane="3.0.00_0" slope="0.00"/>
        <vehicle id="4" x="395.62" y="323.75" angle="350.47" type="DEFAULT_VEHTYPE" speed="0.00" pos="5.10" lane="11.0.00_0" slope="0.00"/>
    </timestep>
    <timestep time="5.00">
        <vehicle id="0" x="-1.99" y="277.93" angle="180.11" type="DEFAULT_VEHTYPE" speed="11.66" pos="40.72" lane="-15.0.00_0" slope="0.00"/>
        <vehicle id="1" x="338.86" y="169.59" angle="0.03" type="DEFAULT_VEHTYPE" speed="8.49" pos="26.64" lane="18.0.00_0" slope="0.00"/>
        <vehicle id="2" x="2.07" y="27.93" angle="0.00" type="DEFAULT_VEHTYPE" speed="6.21" pos="16.77" lane="15.0.00_0" slope="0.00"/>
        <vehicle id="3" x="21.46" y="326.63" angle="89.98" type="DEFAULT_VEHTYPE" speed="3.90" pos="10.37" lane="3.0.00_0" slope="0.00"/>
        <vehicle id="4" x="394.38" y="326.01" angle="337.67" type="DEFAULT_VEHTYPE" speed="2.60" pos="7.70" lane="11.0.00_0" slope="0.00"/>
        <vehicle id="5" x="74.37" y="2.03" angle="270.03" type="DEFAULT_VEHTYPE" speed="0.00" pos="5.10" lane="5.0.00_0" slope="0.00"/>
    </timestep>
    <timestep time="6.00">
        <vehicle id="0" x="-1.99" y="264.27" angle="180.00" type="DEFAULT_VEHTYPE" speed="13.66" pos="54.38" lane="-15.0.00_0" slope="0.00"/>
        <vehicle id="1" x="338.87" y="180.55" angle="0.03" type="DEFAULT_VEHTYPE" speed="10.96" pos="37.60" lane="18.0.00_0" slope="0.00"/>
        <vehicle id="2" x="2.07" y="36.57" angle="0.00" type="DEFAULT_VEHTYPE" speed="8.63" pos="25.41" lane="15.0.00_0" slope="0.00"/>
        <vehicle id="3" x="27.71" y="326.63" angle="89.98" type="DEFAULT_VEHTYPE" speed="6.25" pos="16.62" lane="3.0.00_0" slope="0.00"/>
        <vehicle id="4" x="390.87" y="329.20" angle="312.65" type="DEFAULT_VEHTYPE" speed="4.79" pos="12.49" lane="11.0.00_0" slope="0.00"/>
        <vehicle id="5" x="73.01" y="2.03" angle="270.03" type="DEFAULT_VEHTYPE" speed="1.36" pos="6.46" lane="5.0.00_0" slope="0.00"/>
        <vehicle id="6" x="338.85" y="148.06" angle="0.03" type="DEFAULT_VEHTYPE" speed="0.00" pos="5.10" lane="18.0.00_0" slope="0.00"/>
    </timestep>
    <timestep time="7.00">
        <vehicle id="0" x="-2.00" y="249.79" angle="180.11" type="DEFAULT_VEHTYPE" speed="14.48" pos="68.86" lane="-15.0.00_0" slope="0.00"/>
        <vehicle id="1" x="338.31" y="189.14" angle="353.61" type="DEFAULT_VEHTYPE" speed="8.63" pos="4.24" lane=":139_3_0" slope="0.00"/>
        <vehicle id="2" x="2.07" y="47.23" angle="0.00" type="DEFAULT_VEHTYPE" speed="10.67" pos="36.07" lane="15.0.00_0" slope="0.00"/>
        <vehicle id="3" x="36.17" y="326.64" angle="89.98" type="DEFAULT_VEHTYPE" speed="8.46" pos="25.08" lane="3.0.00_0" slope="0.00"/>
        <vehicle id="4" x="384.64" y="330.59" angle="279.06" type="DEFAULT_VEHTYPE" speed="6.47" pos="0.01" lane="-0.0.00_0" slope="0.00"/>
        <vehicle id="5" x="70.15" y="2.04" angle="270.03" type="DEFAULT_VEHTYPE" speed="2.86" pos="9.32" lane="5.0.00_0" slope="0.00"/>
        <vehicle id="6" x="338.85" y="149.78" angle="0.03" type="DEFAULT_VEHTYPE" speed="1.73" pos="6.83" lane="18.0.00_0" slope="0.00"/>
        <vehicle id="7" x="15.32" y="-1.93" angle="90.03" type="DEFAULT_VEHTYPE" speed="0.00" pos="5.10" lane="-5.0.00_0" slope="0.00"/>
    </timestep>
    <timestep time="8.00">
        <vehicle id="0" x="-2.00" y="235.30" angle="180.00" type="DEFAULT_VEHTYPE" speed="14.49" pos="83.35" lane="-15.0.00_0" slope="0.00"/>
        <vehicle id="1" x="333.75" y="196.73" angle="318.55" type="DEFAULT_VEHTYPE" speed="9.25" pos="4.83" lane=":139_6_0" slope="0.00"/>
        <vehicle id="2" x="2.08" y="60.32" angle="0.00" type="DEFAULT_VEHTYPE" speed="13.09" pos="49.16" lane="15.0.00_0" slope="0.00"/>
        <vehicle id="3" x="45.99" y="326.64" angle="89.98" type="DEFAULT_VEHTYPE" speed="9.82" pos="34.90" lane="3.0.00_0" slope="0.00"/>
        <vehicle id="4" x="376.58" y="330.59" angle="270.03" type="DEFAULT_VEHTYPE" speed="8.05" pos="8.07" lane="-0.0.00_0" slope="0.00"/>
        <vehicle id="5" x="65.83" y="2.04" angle="270.03" type="DEFAULT_VEHTYPE" speed="4.32" pos="13.64" lane="5.0.00_0" slope="0.00"/>
        <vehicle id="6" x="338.86" y="153.98" angle="0.03" type="DEFAULT_VEHTYPE" speed="4.20" pos="11.02" lane="18.0.00_0" slope="0.00"/>
        <vehicle id="7" x="17.53" y="-1.93" angle="90.03" type="DEFAULT_VEHTYPE" speed="2.21" pos="7.31" lane="-5.0.00_0" slope="0.00"/>
        <vehicle id="8" x="107.85" y="326.66" angle="90.00" type="DEFAULT_VEHTYPE" speed="0.00" pos="5.10" lane="2.0.00_0" slope="0.00"/>
    </timestep>
    <timestep time="9.00">
        <vehicle id="0" x="-1.99" y="220.96" angle="180.00" type="DEFAULT_VEHTYPE" speed="14.34" pos="97.69" lane="-15.0.00_0" slope="0.00"/>
        <vehicle id="1" x="325.89" y="199.06" angle="278.69" type="DEFAULT_VEHTYPE" speed="8.36" pos="13.20" lane=":139_6_0" slope="0.00"/>
        <vehicle id="2" x="2.08" y="73.23" angle="0.00" type="DEFAULT_VEHTYPE" speed="12.91" pos="62.07" lane="15.0.00_0" slope="0.00"/>
        <vehicle id="3" x="58.15" y="326.64" angle="89.98" type="DEFAULT_VEHTYPE" speed="12.16" pos="47.06" lane="3.0.00_0" slope="0.00"/>
        <vehicle id="4" x="366.15" y="330.60" angle="270.03" type="DEFAULT_VEHTYPE" speed="10.43" pos="18.50" lane="-0.0.00_0" slope="0.00"/>
        <vehicle id="5" x="59.46" y="2.04" angle="270.03" type="DEFAULT_VEHTYPE" speed="6.38" pos="20.01" lane="5.0.00_0" slope="0.00"/>
        <vehicle id="6" x="338.86" y="160.03" angle="0.03" type="DEFAULT_VEHTYPE" speed="6.05" pos="17.08" lane="18.0.00_0" slope="0.00"/>
        <vehicle id="7" x="22.03" y="-1.94" angle="90.03" type="DEFAULT_VEHTYPE" speed="4.51" pos="11.81" lane="-5.0.00_0" slope="0.00"/>
        <vehicle id="8" x="109.84" y="326.66" angle="90.00" type="DEFAULT_VEHTYPE" speed="1.99" pos="7.09" lane="2.0.00_0" slope="0.00"/>
        <vehicle id="9" x="396.41" y="15.17" angle="0.00" type="DEFAULT_VEHTYPE" speed="0.00" pos="5.10" lane="-8.0.00_0" slope="0.00"/>
    </timestep>
    <timestep time="10.00">
        <vehicle id="0" x="-1.98" y="206.60" angle="179.97" type="DEFAULT_VEHTYPE" speed="14.36" pos="112.05" lane="-15.0.00_0" slope="0.00"/>
        <vehicle id="1" x="316.83" y="199.09" angle="270.03" type="DEFAULT_VEHTYPE" speed="9.06" pos="8.87" lane="4.0.00_0" slope="0.00"/>
        <vehicle id="10" x="338.85" y="148.06" angle="0.03" type="DEFAULT_VEHTYPE" speed="0.00" pos="5.10" lane="18.0.00_0" slope="0.00"/>
        <vehicle id="2" x="2.08" y="86.02" angle="0.00" type="DEFAULT_VEHTYPE" speed="12.79" pos="74.86" lane="15.0.00_0" slope="0.00"/>
        <vehicle id="3" x="70.51" y="326.65" angle="89.98" type="DEFAULT_VEHTYPE" speed="12.36" pos="59.42" lane="3.0.00_0" slope="0.00"/>
        <vehicle id="4" x="354.11" y="330.61" angle="270.03" type="DEFAULT_VEHTYPE" speed="12.04" pos="30.54" lane="-0.0.00_0" slope="0.00"/>
        <vehicle id="5" x="50.66" y="2.05" angle="270.03" type="DEFAULT_VEHTYPE" speed="8.79" pos="28.81" lane="5.0.00_0" slope="0.00"/>
        <vehicle id="6" x="338.86" y="168.52" angle="0.03" type="DEFAULT_VEHTYPE" speed="8.49" pos="25.57" lane="18.0.00_0" slope="0.00"/>
        <vehicle id="7" x="28.94" y="-1.94" angle="90.03" type="DEFAULT_VEHTYPE" speed="6.90" pos="18.72" lane="-5.0.00_0" slope="0.00"/>
        <vehicle id="8" x="113.32" y="326.66" angle="90.00" type="DEFAULT_VEHTYPE" speed="3.48" pos="10.57" lane="2.0.00_0" slope="0.00"/>
        <vehicle id="9" x="396.41" y="16.49" angle="0.00" type="DEFAULT_VEHTYPE" speed="1.32" pos="6.42" lane="-8.0.00_0" slope="0.00"/>
    </timestep>
    <timestep time="11.00">
        <vehicle id="0" x="-1.97" y="192.28" angle="179.93" type="DEFAULT_VEHTYPE" speed="14.32" pos="126.37" lane="-15.0.00_0" slope="0.00"/>
        <vehicle id="1" x="305.44" y="199.10" angle="270.03" type="DEFAULT_VEHTYPE" speed="11.38" pos="20.26" lane="4.0.00_0" slope="0.00"/>
        <vehicle id="10" x="338.85" y="150.39" angle="0.03" type="DEFAULT_VEHTYPE" speed="2.33" pos="7.43" lane="18.0.00_0" slope="0.00"/>
        <vehicle id="11" x="391.10" y="323.72" angle="123.67" type="DEFAULT_VEHTYPE" speed="0.00" pos="5.10" lane="-11.0.00_0" slope="0.00"/>
        <vehicle id="2" x="2.07" y="99.44" angle="359.89" type="DEFAULT_VEHTYPE" speed="13.41" pos="88.28" lane="15.0.00_0" slope="0.00"/>
        <vehicle id="3" x="78.84" y="326.65" angle="89.98" type="DEFAULT_VEHTYPE" speed="8.33" pos="67.75" lane="3.0.00_0" slope="0.00"/>
        <vehicle id="4" x="345.32" y="330.20" angle="265.33" type="DEFAULT_VEHTYPE" speed="8.82" pos="3.00" lane=":43_1_0" slope="0.00"/>
        <vehicle id="5" x="39.38" y="2.05" angle="270.03" type="DEFAULT_VEHTYPE" speed="11.28" pos="40.09" lane="5.0.00_0" slope="0.00"/>
        <vehicle id="6" x="338.87" y="179.22" angle="0.03" type="DEFAULT_VEHTYPE" speed="10.70" pos="36.27" lane="18.0.00_0" slope="0.00"/>
        <vehicle id="7" x="37.53" y="-1.95" angle="90.03" type="DEFAULT_VEHTYPE" speed="8.59" pos="27.31" lane="-5.0.00_0" slope="0.00"/>
        <vehicle id="8" x="118.81" y="326.66" angle="90.00" type="DEFAULT_VEHTYPE" speed="5.49" pos="16.06" lane="2.0.00_0" slope="0.00"/>
        <vehicle id="9" x="396.41" y="20.31" angle="0.00" type="DEFAULT_VEHTYPE" speed="3.82" pos="10.24" lane="-8.0.00_0" slope="0.00"/>
    </timestep>
    <timestep time="12.00">
        <vehicle id="0" x="-1.97" y="177.93" angle="180.00" type="DEFAULT_VEHTYPE" speed="14.35" pos="140.72" lane="-15.0.00_0" slope="0.00"/>
        <vehicle id="1" x="292.55" y="199.11" angle="270.03" type="DEFAULT_VEHTYPE" speed="12.90" pos="33.15" lane="4.0.00_0" slope="0.00"/>
        <vehicle id="10" x="338.86" y="155.06" angle="0.03" type="DEFAULT_VEHTYPE" speed="4.67" pos="12.10" lane="18.0.00_0" slope="0.00"/>
        <vehicle id="11" x="392.15" y="321.51" angle="144.07" type="DEFAULT_VEHTYPE" speed="2.47" pos="7.57" lane="-11.0.00_0" slope="0.00"/>
        <vehicle id="12" x="320.59" y="330.62" angle="270.00" type="DEFAULT_VEHTYPE" speed="0.00" pos="5.10" lane="-1.0.00_0" slope="0.00"/>
        <vehicle id="2" x="2.07" y="112.22" angle="0.00" type="DEFAULT_VEHTYPE" speed="12.78" pos="101.06" lane="15.0.00_0" slope="0.00"/>
        <vehicle id="3" x="86.23" y="324.40" angle="113.25" type="DEFAULT_VEHTYPE" speed="7.91" pos="7.31" lane=":77_4_0" slope="0.00"/>
        <vehicle id="4" x="341.21" y="329.09" angle="255.90" type="DEFAULT_VEHTYPE" speed="4.32" pos="7.32" lane=":43_1_0" slope="0.00"/>
        <vehicle id="5" x="28.01" y="2.06" angle="270.03" type="DEFAULT_VEHTYPE" speed="11.37" pos="51.46" lane="5.0.00_0" slope="0.00"/>
        <vehicle id="6" x="338.52" y="187.62" angle="355.93" type="DEFAULT_VEHTYPE" speed="8.42" pos="2.70" lane=":139_3_0" slope="0.00"/>
        <vehicle id="7" x="47.83" y="-1.95" angle="90.03" type="DEFAULT_VEHTYPE" speed="10.31" pos="37.61" lane="-5.0.00_0" slope="0.00"/>
        <vehicle id="8" x="125.79" y="326.66" angle="90.00" type="DEFAULT_VEHTYPE" speed="6.97" pos="23.03" lane="2.0.00_0" slope="0.00"/>
        <vehicle id="9" x="396.40" y="26.39" angle="359.89" type="DEFAULT_VEHTYPE" speed="6.09" pos="16.32" lane="-8.0.00_0" slope="0.00"/>
    </timestep>
    <timestep time="13.00">
        <vehicle id="0" x="-1.96" y="164.31" angle="180.00" type="DEFAULT_VEHTYPE" speed="13.62" pos="154.34" lane="-15.0.00_0" slope="0.00"/>
        <vehicle id="1" x="280.39" y="199.11" angle="270.03" type="DEFAULT_VEHTYPE" speed="12.16" pos="45.31" lane="4.0.00_0" slope="0.00"/>
        <vehicle id="10" x="338.86" y="161.79" angle="0.03" type="DEFAULT_VEHTYPE" speed="6.74" pos="18.84" lane="18.0.00_0" slope="0.00"/>
        <vehicle id="11" x="392.44" y="317.65" angle="172.51" type="DEFAULT_VEHTYPE" speed="3.99" pos="1.11" lane="8.0.00_0" slope="0.00"/>
        <vehicle id="12" x="318.86" y="330.63" angle="270.06" type="DEFAULT_VEHTYPE" speed="1.73" pos="6.83" lane="-1.0.00_0" slope="0.00"/>
        <vehicle id="13" x="389.29" y="-1.11" angle="79.65" type="DEFAULT_VEHTYPE" speed="0.00" pos="5.10" lane="14.0.00_0" slope="0.00"/>
        <vehicle id="2" x="2.06" y="126.08" angle="0.00" type="DEFAULT_VEHTYPE" speed="13.86" pos="114.92" lane="15.0.00_0" slope="0.00"/>
        <vehicle id="3" x="88.43" y="316.23" angle="174.49" type="DEFAULT_VEHTYPE" speed="8.68" pos="1.71" lane="-21.0.00_0" slope="0.00"/>
        <vehicle id="4" x="336.88" y="325.16" angle="225.15" type="DEFAULT_VEHTYPE" speed="6.03" pos="5.06" lane=":43_6_0" slope="0.00"/>
        <vehicle id="5" x="17.56" y="2.07" angle="270.03" type="DEFAULT_VEHTYPE" speed="10.45" pos="61.91" lane="5.0.00_0" slope="0.00"/>
        <vehicle id="6" x="337.52" y="192.09" angle="347.81" type="DEFAULT_VEHTYPE" speed="4.63" pos="7.33" lane=":139_3_0" slope="0.00"/>
        <vehicle id="7" x="59.28" y="-1.96" angle="90.03" type="DEFAULT_VEHTYPE" speed="11.45" pos="49.06" lane="-5.0.00_0" slope="0.00"/>
        <vehicle id="8" x="134.16" y="326.66" angle="90.00" type="DEFAULT_VEHTYPE" speed="8.37" pos="31.41" lane="2.0.00_0" slope="0.00"/>
        <vehicle id="9" x="396.40" y="34.27" angle="0.00" type="DEFAULT_VEHTYPE" speed="7.88" pos="24.20" lane="-8.0.00_0" slope="0.00"/>
    </timestep>
    <timestep time="14.00">
        <vehicle id="0" x="-1.95" y="150.06" angle="179.96" type="DEFAULT_VEHTYPE" speed="14.25" pos="168.59" lane="-15.0.00_0" slope="0.00"/>
        <vehicle id="1" x="268.16" y="199.12" angle="270.03" type="DEFAULT_VEHTYPE" speed="12.23" pos="57.54" lane="4.0.00_0" slope="0.00"/>
        <vehicle id="10" x="338.86" y="169.83" angle="0.03" type="DEFAULT_VEHTYPE" speed="8.04" pos="26.87" lane="18.0.00_0" slope="0.00"/>
        <vehicle id="11" x="392.43" y="311.24" angle="180.11" type="DEFAULT_VEHTYPE" speed="6.40" pos="7.52" lane="8.0.00_0" slope="0.00"/>
        <vehicle id="12" x="315.63" y="330.63" angle="270.11" type="DEFAULT_VEHTYPE" speed="3.23" pos="10.06" lane="-1.0.00_0" slope="0.00"/>
        <vehicle id="13" x="391.11" y="-0.22" angle="70.28" type="DEFAULT_VEHTYPE" speed="2.03" pos="7.13" lane="14.0.00_0" slope="0.00"/>
        <vehicle id="2" x="2.05" y="139.48" angle="359.89" type="DEFAULT_VEHTYPE" speed="13.40" pos="128.32" lane="15.0.00_0" slope="0.00"/>
        <vehicle id="3" x="88.43" y="305.19" angle="179.98" type="DEFAULT_VEHTYPE" speed="11.04" pos="12.75" lane="-21.0.00_0" slope="0.00"/>
        <vehicle id="4" x="334.95" y="317.76" angle="188.43" type="DEFAULT_VEHTYPE" speed="7.78" pos="0.06" lane="-16.0.00_0" slope="0.00"/>
        <vehicle id="5" x="6.55" y="2.75" angle="277.86" type="DEFAULT_VEHTYPE" speed="11.11" pos="3.44" lane="-20.0.00_0" slope="0.00"/>
        <vehicle id="6" x="332.87" y="197.30" angle="312.64" type="DEFAULT_VEHTYPE" speed="7.19" pos="5.88" lane=":139_6_0" slope="0.00"/>
        <vehicle id="7" x="70.98" y="-1.97" angle="90.03" type="DEFAULT_VEHTYPE" speed="11.70" pos="60.76" lane="-5.0.00_0" slope="0.00"/>
        <vehicle id="8" x="144.28" y="326.66" angle="90.00" type="DEFAULT_VEHTYPE" speed="10.11" pos="41.52" lane="2.0.00_0" slope="0.00"/>
        <vehicle id="9" x="396.40" y="44.39" angle="0.00" type="DEFAULT_VEHTYPE" speed="10.11" pos="34.32" lane="-8.0.00_0" slope="0.00"/>
    </timestep>
    <timestep time="15.00">
        <vehicle id="0" x="-1.95" y="136.59" angle="179.99" type="DEFAULT_VEHTYPE" speed="13.47" pos="182.06" lane="-15.0.00_0" slope="0.00"/>
        <vehicle id="1" x="256.04" y="199.12" angle="270.03" type="DEFAULT_VEHTYPE" speed="12.12" pos="69.66" lane="4.0.00_0" slope="0.00"/>
        <vehicle id="10" x="338.87" y="180.44" angle="0.03" type="DEFAULT_VEHTYPE" speed="10.62" pos="37.49" lane="18.0.00_0" slope="0.00"/>
        <vehicle id="11" x="392.42" y="303.38" angle="180.11" type="DEFAULT_VEHTYPE" speed="7.86" pos="15.38" lane="8.0.00_0" slope="0.00"/>
        <vehicle id="12" x="309.81" y="330.63" angle="270.00" type="DEFAULT_VEHTYPE" speed="5.82" pos="15.88" lane="-1.0.00_0" slope="0.00"/>
        <vehicle id="13" x="394.10" y="2.38" angle="51.76" type="DEFAULT_VEHTYPE" speed="3.98" pos="11.11" lane="14.0.00_0" slope="0.00"/>
        <vehicle id="15" x="352.89" y="-2.00" angle="90.00" type="DEFAULT_VEHTYPE" speed="0.00" pos="5.10" lane="-7.0.00_0" slope="0.00"/>
        <vehicle id="2" x="2.05" y="152.86" angle="0.00" type="DEFAULT_VEHTYPE" speed="13.38" pos="141.70" lane="15.0.00_0" slope="0.00"/>
        <vehicle id="3" x="88.44" y="292.79" angle="179.98" type="DEFAULT_VEHTYPE" speed="12.41" pos="25.16" lane="-21.0.00_0" slope="0.00"/>
        <vehicle id="4" x="334.94" y="308.19" angle="180.03" type="DEFAULT_VEHTYPE" speed="9.57" pos="9.63" lane="-16.0.00_0" slope="0.00"/>
        <vehicle id="5" x="2.07" y="12.20" angle="352.86" type="DEFAULT_VEHTYPE" speed="11.09" pos="1.04" lane="15.0.00_0" slope="0.00"/>
        <vehicle id="6" x="323.44" y="199.09" angle="274.77" type="DEFAULT_VEHTYPE" speed="9.77" pos="2.26" lane="4.0.00_0" slope="0.00"/>
        <vehicle id="7" x="82.54" y="-1.97" angle="90.03" type="DEFAULT_VEHTYPE" speed="11.55" pos="3.07" lane=":195_4_0" slope="0.00"/>
        <vehicle id="8" x="151.18" y="324.86" angle="108.93" type="DEFAULT_VEHTYPE" speed="7.27" pos="6.53" lane=":26_4_0" slope="0.00"/>
        <vehicle id="9" x="396.39" y="56.27" angle="0.00" type="DEFAULT_VEHTYPE" speed="11.89" pos="46.20" lane="-8.0.00_0" slope="0.00"/>
    </timestep>
    <timestep time="16.00">
        <vehicle id="0" x="-1.94" y="123.06" angle="180.00" type="DEFAULT_VEHTYPE" speed="13.53" pos="195.59" lane="-15.0.00_0" slope="0.00"/>
        <vehicle id="1" x="243.34" y="199.13" angle="270.03" type="DEFAULT_VEHTYPE" speed="12.70" pos="82.36" lane="4.0.00_0" slope="0.00"/>
        <vehicle id="10" x="338.88" y="193.52" angle="0.05" type="DEFAULT_VEHTYPE" speed="13.07" pos="8.58" lane=":139_2_0" slope="0.00"/>
        <vehicle id="11" x="392.41" y="293.09" angle="180.06" type="DEFAULT_VEHTYPE" speed="10.29" pos="25.67" lane="8.0.00_0" slope="0.00"/>
        <vehicle id="12" x="301.59" y="330.63" angle="270.00" type="DEFAULT_VEHTYPE" speed="8.22" pos="24.10" lane="-1.0.00_0" slope="0.00"/>
        <vehicle id="13" x="396.36" y="8.40" angle="16.46" type="DEFAULT_VEHTYPE" speed="6.54" pos="17.66" lane="14.0.00_0" slope="0.00"/>
        <vehicle id="14" x="334.95" y="312.72" angle="180.03" type="DEFAULT_VEHTYPE" speed="0.00" pos="5.10" lane="-16.0.00_0" slope="0.00"/>
        <vehicle id="15" x="354.87" y="-2.00" angle="90.00" type="DEFAULT_VEHTYPE" speed="1.98" pos="7.08" lane="-7.0.00_0" slope="0.00"/>
        <vehicle id="16" x="389.29" y="-1.11" angle="79.65" type="DEFAULT_VEHTYPE" speed="0.00" pos="5.10" lane="14.0.00_0" slope="0.00"/>
        <vehicle id="2" x="2.04" y="166.06" angle="0.00" type="DEFAULT_VEHTYPE" speed="13.20" pos="154.90" lane="15.0.00_0" slope="0.00"/>
        <vehicle id="3" x="88.44" y="278.77" angle="180.00" type="DEFAULT_VEHTYPE" speed="14.03" pos="3.69" lane=":184_0_0" slope="0.00"/>
        <vehicle id="4" x="334.94" y="296.51" angle="180.03" type="DEFAULT_VEHTYPE" speed="11.68" pos="21.31" lane="-16.0.00_0" slope="0.00"/>
        <vehicle id="5" x="2.07" y="22.82" angle="0.00" type="DEFAULT_VEHTYPE" speed="10.62" pos="11.66" lane="15.0.00_0" slope="0.00"/>
        <vehicle id="6" x="312.19" y="199.10" angle="270.03" type="DEFAULT_VEHTYPE" speed="11.26" pos="13.51" lane="4.0.00_0" slope="0.00"/>
        <vehicle id="7" x="93.97" y="-1.98" angle="90.03" type="DEFAULT_VEHTYPE" speed="11.43" pos="14.50" lane=":195_4_0" slope="0.00"/>
        <vehicle id="8" x="154.02" y="318.67" angle="162.63" type="DEFAULT_VEHTYPE" speed="7.11" pos="13.64" lane=":26_4_0" slope="0.00"/>
        <vehicle id="9" x="396.39" y="67.90" angle="0.00" type="DEFAULT_VEHTYPE" speed="11.62" pos="57.83" lane="-8.0.00_0" slope="0.00"/>
    </timestep>
    <timestep time="17.00">
        <vehicle id="0" x="-1.93" y="109.09" angle="180.00" type="DEFAULT_VEHTYPE" speed="13.97" pos="209.56" lane="-15.0.00_0" slope="0.00"/>
        <vehicle id="1" x="230.69" y="199.14" angle="270.03" type="DEFAULT_VEHTYPE" speed="12.65" pos="95.01" lane="4.0.00_0" slope="0.00"/>
        <vehicle id="10" x="338.89" y="208.26" angle="0.05" type="DEFAULT_VEHTYPE" speed="14.74" pos="0.23" lane="17.0.00_0" slope="0.00"/>
        <vehicle id="11" x="392.40" y="280.68" angle="180.04" type="DEFAULT_VEHTYPE" speed="12.41" pos="38.08" lane="8.0.00_0" slope="0.00"/>
        <vehicle id="12" x="291.08" y="330.64" angle="270.00" type="DEFAULT_VEHTYPE" speed="10.51" pos="34.61" lane="-1.0.00_0" slope="0.00"/>
        <vehicle id="13" x="396.41" y="16.57" angle="0.00" type="DEFAULT_VEHTYPE" speed="8.27" pos="6.50" lane="-8.0.00_0" slope="0.00"/>
        <vehicle id="14" x="334.95" y="310.42" angle="180.03" type="DEFAULT_VEHTYPE" speed="2.30" pos="7.40" lane="-16.0.00_0" slope="0.00"/>
        <vehicle id="15" x="358.54" y="-2.00" angle="90.00" type="DEFAULT_VEHTYPE" speed="3.67" pos="10.75" lane="-7.0.00_0" slope="0.00"/>
        <vehicle id="16" x="390.59" y="-0.52" angle="73.35" type="DEFAULT_VEHTYPE" speed="1.42" pos="6.52" lane="14.0.00_0" slope="0.00"/>
        <vehicle id="17" x="173.24" y="326.65" angle="90.00" type="DEFAULT_VEHTYPE" speed="0.00" pos="5.10" lane="1.0.00_0" slope="0.00"/>
        <vehicle id="2" x="2.03" y="180.06" angle="0.00" type="DEFAULT_VEHTYPE" speed="14.00" pos="168.90" lane="15.0.00_0" slope="0.00"/>
        <vehicle id="3" x="88.44" y="264.27" angle="180.00" type="DEFAULT_VEHTYPE" speed="14.49" pos="18.19" lane=":184_0_0" slope="0.00"/>
        <vehicle id="4" x="334.93" y="284.71" angle="180.03" type="DEFAULT_VEHTYPE" speed="11.79" pos="33.11" lane="-16.0.00_0" slope="0.00"/>
        <vehicle id="5" x="2.07" y="34.04" angle="0.00" type="DEFAULT_VEHTYPE" speed="11.22" pos="22.88" lane="15.0.00_0" slope="0.00"/>
        <vehicle id="6" x="299.45" y="199.10" angle="270.03" type="DEFAULT_VEHTYPE" speed="12.74" pos="26.25" lane="4.0.00_0" slope="0.00"/>
        <vehicle id="7" x="105.41" y="-1.98" angle="90.01" type="DEFAULT_VEHTYPE" speed="11.44" pos="3.73" lane="-6.0.00_0" slope="0.00"/>
        <vehicle id="8" x="154.12" y="312.27" angle="180.08" type="DEFAULT_VEHTYPE" speed="6.41" pos="5.63" lane="-25.0.00_0" slope="0.00"/>
        <vehicle id="9" x="396.38" y="78.81" angle="359.91" type="DEFAULT_VEHTYPE" speed="10.92" pos="68.74" lane="-8.0.00_0" slope="0.00"/>
    </timestep>
    <timestep time="18.00">
        <vehicle id="0" x="-1.92" y="95.37" angle="179.89" type="DEFAULT_VEHTYPE" speed="13.73" pos="223.28" lane="-15.0.00_0" slope="0.00"/>
        <vehicle id="1" x="217.75" y="199.14" angle="270.03" type="DEFAULT_VEHTYPE" speed="12.94" pos="107.95" lane="4.0.00_0" slope="0.00"/>
        <vehicle id="10" x="338.90" y="223.30" angle="0.03" type="DEFAULT_VEHTYPE" speed="15.04" pos="15.27" lane="17.0.00_0" slope="0.00"/>
        <vehicle id="11" x="392.38" y="267.23" angle="180.04" type="DEFAULT_VEHTYPE" speed="13.45" pos="51.53" lane="8.0.00_0" slope="0.00"/>
        <vehicle id="12" x="278.16" y="330.64" angle="270.00" type="DEFAULT_VEHTYPE" speed="12.93" pos="47.53" lane="-1.0.00_0" slope="0.00"/>
        <vehicle id="13" x="396.40" y="26.70" angle="359.89" type="DEFAULT_VEHTYPE" speed="10.14" pos="16.63" lane="-8.0.00_0" slope="0.00"/>
        <vehicle id="14" x="334.94" y="306.11" angle="180.03" type="DEFAULT_VEHTYPE" speed="4.31" pos="11.71" lane="-16.0.00_0" slope="0.00"/>
        <vehicle id="15" x="363.53" y="-2.00" angle="90.00" type="DEFAULT_VEHTYPE" speed="5.00" pos="15.74" lane="-7.0.00_0" slope="0.00"/>
        <vehicle id="16" x="393.10" y="1.28" angle="58.60" type="DEFAULT_VEHTYPE" speed="3.10" pos="9.63" lane="14.0.00_0" slope="0.00"/>
        <vehicle id="17" x="175.49" y="326.65" angle="90.00" type="DEFAULT_VEHTYPE" speed="2.25" pos="7.35" lane="1.0.00_0" slope="0.00"/>
        <vehicle id="18" x="320.63" y="133.45" angle="270.01" type="DEFAULT_VEHTYPE" speed="0.00" pos="5.10" lane="12.0.00_0" slope="0.00"/>
        <vehicle id="2" x="2.02" y="193.24" angle="359.90" type="DEFAULT_VEHTYPE" speed="13.18" pos="182.08" lane="15.0.00_0" slope="0.00"/>
        <vehicle id="3" x="88.44" y="249.88" angle="179.99" type="DEFAULT_VEHTYPE" speed="14.40" pos="10.58" lane="-22.0.00_0" slope="0.00"/>
        <vehicle id="4" x="333.94" y="277.56" angle="191.57" type="DEFAULT_VEHTYPE" speed="7.31" pos="4.80" lane=":111_0_0" slope="0.00"/>
        <vehicle id="5" x="2.07" y="44.77" angle="0.00" type="DEFAULT_VEHTYPE" speed="10.74" pos="33.61" lane="15.0.00_0" slope="0.00"/>
        <vehicle id="6" x="285.72" y="199.11" angle="270.03" type="DEFAULT_VEHTYPE" speed="13.72" pos="39.98" lane="4.0.00_0" slope="0.00"/>
        <vehicle id="7" x="117.49" y="-1.98" angle="90.00" type="DEFAULT_VEHTYPE" speed="12.08" pos="15.81" lane="-6.0.00_0" slope="0.00"/>
        <vehicle id="8" x="154.11" y="303.77" angle="180.08" type="DEFAULT_VEHTYPE" speed="8.50" pos="14.14" lane="-25.0.00_0" slope="0.00"/>
        <vehicle id="9" x="396.38" y="89.92" angle="0.00" type="DEFAULT_VEHTYPE" speed="11.11" pos="79.85" lane="-8.0.00_0" slope="0.00"/>
    </timestep>
    <timestep time="19.00">
        <vehicle id="0" x="-1.92" y="80.71" angle="180.00" type="DEFAULT_VEHTYPE" speed="14.66" pos="237.94" lane="-15.0.00_0" slope="0.00"/>
        <vehicle id="1" x="205.75" y="199.15" angle="270.03" type="DEFAULT_VEHTYPE" speed="12.01" pos="119.95" lane="4.0.00_0" slope="0.00"/>
        <vehicle id="10" x="338.91" y="237.71" angle="0.03" type="DEFAULT_VEHTYPE" speed="14.41" pos="29.68" lane="17.0.00_0" slope="0.00"/>
        <vehicle id="11" x="392.36" y="253.02" angle="180.11" type="DEFAULT_VEHTYPE" speed="14.21" pos="65.74" lane="8.0.00_0" slope="0.00"/>
        <vehicle id="12" x="264.17" y="330.64" angle="270.00" type="DEFAULT_VEHTYPE" speed="13.99" pos="61.52" lane="-1.0.00_0" slope="0.00"/>
        <vehicle id="13" x="396.40" y="39.19" angle="0.00" type="DEFAULT_VEHTYPE" speed="12.49" pos="29.12" lane="-8.0.00_0" slope="0.00"/>
        <vehicle id="14" x="334.94" y="299.31" angle="180.03" type="DEFAULT_VEHTYPE" speed="6.80" pos="18.51" lane="-16.0.00_0" slope="0.00"/>
        <vehicle id="15" x="371.04" y="-2.00" angle="90.00" type="DEFAULT_VEHTYPE" speed="7.51" pos="23.25" lane="-7.0.00_0" slope="0.00"/>
        <vehicle id="16" x="395.68" y="5.22" angle="33.76" type="DEFAULT_VEHTYPE" speed="4.76" pos="14.39" lane="14.0.00_0" slope="0.00"/>
        <vehicle id="17" x="180.21" y="326.65" angle="90.00" type="DEFAULT_VEHTYPE" speed="4.72" pos="12.07" lane="1.0.00_0" slope="0.00"/>
        <vehicle id="18" x="318.54" y="133.45" angle="270.01" type="DEFAULT_VEHTYPE" speed="2.09" pos="7.19" lane="12.0.00_0" slope="0.00"/>
        <vehicle id="19" x="-1.97" y="313.55" angle="180.00" type="DEFAULT_VEHTYPE" speed="0.00" pos="5.10" lane="-15.0.00_0" slope="0.00"/>
        <vehicle id="2" x="2.02" y="206.93" angle="0.00" type="DEFAULT_VEHTYPE" speed="13.69" pos="195.77" lane="15.0.00_0" slope="0.00"/>
        <vehicle id="3" x="88.44" y="234.89" angle="179.99" type="DEFAULT_VEHTYPE" speed="14.99" pos="25.57" lane="-22.0.00_0" slope="0.00"/>
        <vehicle id="4" x="327.85" y="273.45" angle="248.11" type="DEFAULT_VEHTYPE" speed="7.78" pos="12.58" lane=":111_0_0" slope="0.00"/>