<?xml version="1.0" encoding="UTF-8"?>

<!-- generated on Wed Aug 14 12:01:19 2019 by Eclipse SUMO Version 1.2.0
<configuration xmlns:xsi="http://www.w3.org/2001/XMLSchema-instance" xsi:noNamespaceSchemaLocation="http://sumo.dlr.de/xsd/sumoConfiguration.xsd">

    <input>
        <net-file value="Town01.net.xml"/>
        <route-files value="trips.trips.xml"/>
    </input>

    <output>
        <netstate-dump value="test.log"/>
        <fcd-output value="Town01_Car200_2.log"/>
    </output>

    <time>
        <begin value="0"/>
        <end value="10000"/>
    </time>

</configuration>
-->

<fcd-export xmlns:xsi="http://www.w3.org/2001/XMLSchema-instance" xsi:noNamespaceSchemaLocation="http://sumo.dlr.de/xsd/fcd_file.xsd">
    <timestep time="0.00">
        <vehicle id="0" x="5.14" y="3.63" angle="288.52" type="DEFAULT_VEHTYPE" speed="0.00" pos="5.10" lane="-20.0.00_0" slope="0.00"/>
    </timestep>
    <timestep time="1.00">
        <vehicle id="0" x="3.76" y="5.25" angle="306.60" type="DEFAULT_VEHTYPE" speed="2.14" pos="7.24" lane="-20.0.00_0" slope="0.00"/>
        <vehicle id="1" x="88.44" y="255.36" angle="179.99" type="DEFAULT_VEHTYPE" speed="0.00" pos="5.10" lane="-22.0.00_0" slope="0.00"/>
    </timestep>
    <timestep time="2.00">
        <vehicle id="0" x="2.35" y="8.48" angle="332.08" type="DEFAULT_VEHTYPE" speed="3.55" pos="10.79" lane="-20.0.00_0" slope="0.00"/>
        <vehicle id="1" x="88.44" y="252.81" angle="179.99" type="DEFAULT_VEHTYPE" speed="2.55" pos="7.65" lane="-22.0.00_0" slope="0.00"/>
        <vehicle id="2" x="106.78" y="-1.98" angle="90.00" type="DEFAULT_VEHTYPE" speed="0.00" pos="5.10" lane="-6.0.00_0" slope="0.00"/>
    </timestep>
    <timestep time="3.00">
        <vehicle id="0" x="2.07" y="13.55" angle="357.07" type="DEFAULT_VEHTYPE" speed="5.09" pos="2.39" lane="15.0.00_0" slope="0.00"/>
        <vehicle id="1" x="88.44" y="248.05" angle="179.99" type="DEFAULT_VEHTYPE" speed="4.76" pos="12.41" lane="-22.0.00_0" slope="0.00"/>
        <vehicle id="2" x="109.16" y="-1.98" angle="90.00" type="DEFAULT_VEHTYPE" speed="2.38" pos="7.48" lane="-6.0.00_0" slope="0.00"/>
        <vehicle id="3" x="338.77" y="16.26" angle="0.03" type="DEFAULT_VEHTYPE" speed="0.00" pos="5.10" lane="19.0.00_0" slope="0.00"/>
    </timestep>
    <timestep time="4.00">
        <vehicle id="0" x="2.07" y="20.07" angle="0.00" type="DEFAULT_VEHTYPE" speed="6.52" pos="8.91" lane="15.0.00_0" slope="0.00"/>
        <vehicle id="1" x="88.44" y="240.87" angle="179.99" type="DEFAULT_VEHTYPE" speed="7.17" pos="19.58" lane="-22.0.00_0" slope="0.00"/>
        <vehicle id="2" x="113.42" y="-1.98" angle="90.00" type="DEFAULT_VEHTYPE" speed="4.27" pos="11.74" lane="-6.0.00_0" slope="0.00"/>
        <vehicle id="3" x="338.77" y="18.77" angle="0.03" type="DEFAULT_VEHTYPE" speed="2.51" pos="7.61" lane="19.0.00_0" slope="0.00"/>
    </timestep>
    <timestep time="5.00">
        <vehicle id="0" x="2.07" y="29.19" angle="0.00" type="DEFAULT_VEHTYPE" speed="9.12" pos="18.03" lane="15.0.00_0" slope="0.00"/>
        <vehicle id="1" x="88.45" y="231.54" angle="179.99" type="DEFAULT_VEHTYPE" speed="9.33" pos="28.91" lane="-22.0.00_0" slope="0.00"/>
        <vehicle id="2" x="119.76" y="-1.98" angle="90.00" type="DEFAULT_VEHTYPE" speed="6.34" pos="18.08" lane="-6.0.00_0" slope="0.00"/>
        <vehicle id="3" x="338.78" y="23.43" angle="0.03" type="DEFAULT_VEHTYPE" speed="4.66" pos="12.27" lane="19.0.00_0" slope="0.00"/>
        <vehicle id="4" x="2.07" y="16.26" angle="0.00" type="DEFAULT_VEHTYPE" speed="0.00" pos="5.10" lane="15.0.00_0" slope="0.00"/>
        <vehicle id="5" x="334.95" y="312.72" angle="180.03" type="DEFAULT_VEHTYPE" speed="0.00" pos="5.10" lane="-16.0.00_0" slope="0.00"/>
    </timestep>
    <timestep time="6.00">
        <vehicle id="0" x="2.07" y="40.48" angle="0.00" type="DEFAULT_VEHTYPE" speed="11.29" pos="29.32" lane="15.0.00_0" slope="0.00"/>
        <vehicle id="1" x="88.45" y="220.29" angle="179.99" type="DEFAULT_VEHTYPE" speed="11.25" pos="40.16" lane="-22.0.00_0" slope="0.00"/>
        <vehicle id="2" x="127.60" y="-1.98" angle="90.00" type="DEFAULT_VEHTYPE" speed="7.84" pos="25.92" lane="-6.0.00_0" slope="0.00"/>
        <vehicle id="3" x="338.78" y="29.46" angle="0.03" type="DEFAULT_VEHTYPE" speed="6.04" pos="18.30" lane="19.0.00_0" slope="0.00"/>
        <vehicle id="4" x="2.07" y="18.69" angle="0.00" type="DEFAULT_VEHTYPE" speed="2.43" pos="7.53" lane="15.0.00_0" slope="0.00"/>
        <vehicle id="5" x="334.95" y="310.93" angle="180.03" type="DEFAULT_VEHTYPE" speed="1.79" pos="6.89" lane="-16.0.00_0" slope="0.00"/>
        <vehicle id="6" x="334.87" y="179.84" angle="180.03" type="DEFAULT_VEHTYPE" speed="0.00" pos="5.10" lane="-18.0.00_0" slope="0.00"/>
    </timestep>
    <timestep time="7.00">
        <vehicle id="0" x="2.08" y="53.81" angle="0.08" type="DEFAULT_VEHTYPE" speed="13.33" pos="42.65" lane="15.0.00_0" slope="0.00"/>
        <vehicle id="1" x="88.45" y="208.05" angle="179.99" type="DEFAULT_VEHTYPE" speed="12.24" pos="0.72" lane=":156_0_0" slope="0.00"/>
        <vehicle id="2" x="137.04" y="-1.98" angle="90.00" type="DEFAULT_VEHTYPE" speed="9.44" pos="35.36" lane="-6.0.00_0" slope="0.00"/>
        <vehicle id="3" x="338.78" y="37.88" angle="0.03" type="DEFAULT_VEHTYPE" speed="8.42" pos="26.72" lane="19.0.00_0" slope="0.00"/>
        <vehicle id="4" x="2.07" y="23.53" angle="0.00" type="DEFAULT_VEHTYPE" speed="4.85" pos="12.37" lane="15.0.00_0" slope="0.00"/>
        <vehicle id="5" x="334.94" y="307.04" angle="180.03" type="DEFAULT_VEHTYPE" speed="3.90" pos="10.78" lane="-16.0.00_0" slope="0.00"/>
        <vehicle id="6" x="334.87" y="178.13" angle="180.03" type="DEFAULT_VEHTYPE" speed="1.71" pos="6.81" lane="-18.0.00_0" slope="0.00"/>
        <vehicle id="7" x="396.41" y="15.17" angle="0.00" type="DEFAULT_VEHTYPE" speed="0.00" pos="5.10" lane="-8.0.00_0" slope="0.00"/>
    </timestep>
    <timestep time="8.00">
        <vehicle id="0" x="2.08" y="67.41" angle="0.00" type="DEFAULT_VEHTYPE" speed="13.60" pos="56.25" lane="15.0.00_0" slope="0.00"/>
        <vehicle id="1" x="88.45" y="195.83" angle="180.00" type="DEFAULT_VEHTYPE" speed="12.22" pos="12.94" lane=":156_0_0" slope="0.00"/>
        <vehicle id="2" x="148.24" y="-1.98" angle="90.00" type="DEFAULT_VEHTYPE" speed="11.20" pos="46.56" lane="-6.0.00_0" slope="0.00"/>
        <vehicle id="3" x="338.79" y="47.85" angle="0.03" type="DEFAULT_VEHTYPE" speed="9.96" pos="36.69" lane="19.0.00_0" slope="0.00"/>
        <vehicle id="4" x="2.07" y="29.74" angle="0.00" type="DEFAULT_VEHTYPE" speed="6.20" pos="18.58" lane="15.0.00_0" slope="0.00"/>
        <vehicle id="5" x="334.94" y="301.71" angle="180.03" type="DEFAULT_VEHTYPE" speed="5.32" pos="16.11" lane="-16.0.00_0" slope="0.00"/>
        <vehicle id="6" x="334.86" y="173.89" angle="180.03" type="DEFAULT_VEHTYPE" speed="4.24" pos="11.05" lane="-18.0.00_0" slope="0.00"/>
        <vehicle id="7" x="396.41" y="16.49" angle="0.00" type="DEFAULT_VEHTYPE" speed="1.32" pos="6.42" lane="-8.0.00_0" slope="0.00"/>
        <vehicle id="8" x="74.37" y="2.03" angle="270.03" type="DEFAULT_VEHTYPE" speed="0.00" pos="5.10" lane="5.0.00_0" slope="0.00"/>
    </timestep>
    <timestep time="9.00">
        <vehicle id="0" x="2.08" y="81.51" angle="0.00" type="DEFAULT_VEHTYPE" speed="14.10" pos="70.35" lane="15.0.00_0" slope="0.00"/>
        <vehicle id="1" x="88.45" y="183.42" angle="179.99" type="DEFAULT_VEHTYPE" speed="12.40" pos="3.35" lane="-23.0.00_0" slope="0.00"/>
        <vehicle id="2" x="160.86" y="-1.99" angle="90.00" type="DEFAULT_VEHTYPE" speed="12.62" pos="59.18" lane="-6.0.00_0" slope="0.00"/>
        <vehicle id="3" x="338.80" y="59.61" angle="0.03" type="DEFAULT_VEHTYPE" speed="11.76" pos="48.45" lane="19.0.00_0" slope="0.00"/>
        <vehicle id="4" x="2.07" y="37.29" angle="0.00" type="DEFAULT_VEHTYPE" speed="7.55" pos="26.13" lane="15.0.00_0" slope="0.00"/>
        <vehicle id="5" x="334.94" y="294.09" angle="180.03" type="DEFAULT_VEHTYPE" speed="7.62" pos="23.73" lane="-16.0.00_0" slope="0.00"/>
        <vehicle id="6" x="334.86" y="167.63" angle="180.03" type="DEFAULT_VEHTYPE" speed="6.26" pos="17.31" lane="-18.0.00_0" slope="0.00"/>
        <vehicle id="7" x="396.41" y="20.31" angle="0.00" type="DEFAULT_VEHTYPE" speed="3.82" pos="10.24" lane="-8.0.00_0" slope="0.00"/>
        <vehicle id="8" x="73.01" y="2.03" angle="270.03" type="DEFAULT_VEHTYPE" speed="1.36" pos="6.46" lane="5.0.00_0" slope="0.00"/>
        <vehicle id="9" x="88.44" y="255.36" angle="179.99" type="DEFAULT_VEHTYPE" speed="0.00" pos="5.10" lane="-22.0.00_0" slope="0.00"/>
    </timestep>
    <timestep time="10.00">
        <vehicle id="0" x="2.08" y="96.06" angle="359.97" type="DEFAULT_VEHTYPE" speed="14.55" pos="84.90" lane="15.0.00_0" slope="0.00"/>
        <vehicle id="1" x="88.45" y="170.41" angle="179.99" type="DEFAULT_VEHTYPE" speed="13.01" pos="16.36" lane="-23.0.00_0" slope="0.00"/>
        <vehicle id="10" x="396.41" y="15.17" angle="0.00" type="DEFAULT_VEHTYPE" speed="0.00" pos="5.10" lane="-8.0.00_0" slope="0.00"/>
        <vehicle id="2" x="174.00" y="-1.99" angle="90.00" type="DEFAULT_VEHTYPE" speed="13.14" pos="72.32" lane="-6.0.00_0" slope="0.00"/>
        <vehicle id="3" x="338.80" y="73.37" angle="0.03" type="DEFAULT_VEHTYPE" speed="13.76" pos="62.21" lane="19.0.00_0" slope="0.00"/>
        <vehicle id="4" x="2.07" y="46.80" angle="0.00" type="DEFAULT_VEHTYPE" speed="9.51" pos="35.64" lane="15.0.00_0" slope="0.00"/>
        <vehicle id="5" x="334.93" y="285.03" angle="180.03" type="DEFAULT_VEHTYPE" speed="9.07" pos="32.79" lane="-16.0.00_0" slope="0.00"/>
        <vehicle id="6" x="334.86" y="160.07" angle="180.03" type="DEFAULT_VEHTYPE" speed="7.56" pos="24.87" lane="-18.0.00_0" slope="0.00"/>
        <vehicle id="7" x="396.40" y="26.39" angle="359.89" type="DEFAULT_VEHTYPE" speed="6.09" pos="16.32" lane="-8.0.00_0" slope="0.00"/>
        <vehicle id="8" x="70.15" y="2.04" angle="270.03" type="DEFAULT_VEHTYPE" speed="2.86" pos="9.32" lane="5.0.00_0" slope="0.00"/>
        <vehicle id="9" x="88.44" y="253.59" angle="179.99" type="DEFAULT_VEHTYPE" speed="1.77" pos="6.87" lane="-22.0.00_0" slope="0.00"/>
    </timestep>
    <timestep time="11.00">
        <vehicle id="0" x="2.07" y="110.14" angle="0.00" type="DEFAULT_VEHTYPE" speed="14.07" pos="98.98" lane="15.0.00_0" slope="0.00"/>
        <vehicle id="1" x="88.46" y="157.44" angle="179.99" type="DEFAULT_VEHTYPE" speed="12.96" pos="29.33" lane="-23.0.00_0" slope="0.00"/>
        <vehicle id="10" x="396.41" y="17.41" angle="0.00" type="DEFAULT_VEHTYPE" speed="2.24" pos="7.34" lane="-8.0.00_0" slope="0.00"/>
        <vehicle id="11" x="392.43" y="313.66" angle="180.07" type="DEFAULT_VEHTYPE" speed="0.00" pos="5.10" lane="8.0.00_0" slope="0.00"/>
        <vehicle id="2" x="186.87" y="-1.99" angle="90.00" type="DEFAULT_VEHTYPE" speed="12.87" pos="85.19" lane="-6.0.00_0" slope="0.00"/>
        <vehicle id="3" x="338.81" y="87.69" angle="0.03" type="DEFAULT_VEHTYPE" speed="14.32" pos="76.53" lane="19.0.00_0" slope="0.00"/>
        <vehicle id="4" x="2.08" y="58.08" angle="0.00" type="DEFAULT_VEHTYPE" speed="11.28" pos="46.92" lane="15.0.00_0" slope="0.00"/>
        <vehicle id="5" x="334.93" y="274.07" angle="180.03" type="DEFAULT_VEHTYPE" speed="10.96" pos="8.13" lane=":111_1_0" slope="0.00"/>
        <vehicle id="6" x="334.85" y="150.92" angle="180.03" type="DEFAULT_VEHTYPE" speed="9.16" pos="34.03" lane="-18.0.00_0" slope="0.00"/>
        <vehicle id="7" x="396.40" y="34.27" angle="0.00" type="DEFAULT_VEHTYPE" speed="7.88" pos="24.20" lane="-8.0.00_0" slope="0.00"/>
        <vehicle id="8" x="65.83" y="2.04" angle="270.03" type="DEFAULT_VEHTYPE" speed="4.32" pos="13.64" lane="5.0.00_0" slope="0.00"/>
        <vehicle id="9" x="88.44" y="250.30" angle="179.99" type="DEFAULT_VEHTYPE" speed="3.28" pos="10.16" lane="-22.0.00_0" slope="0.00"/>
    </timestep>
    <timestep time="12.00">
        <vehicle id="0" x="2.06" y="123.94" angle="0.00" type="DEFAULT_VEHTYPE" speed="13.80" pos="112.78" lane="15.0.00_0" slope="0.00"/>
        <vehicle id="1" x="88.46" y="144.50" angle="179.99" type="DEFAULT_VEHTYPE" speed="12.95" pos="42.27" lane="-23.0.00_0" slope="0.00"/>
        <vehicle id="10" x="396.41" y="21.97" angle="360.00" type="DEFAULT_VEHTYPE" speed="4.56" pos="11.90" lane="-8.0.00_0" slope="0.00"/>
        <vehicle id="11" x="392.43" y="311.25" angle="180.11" type="DEFAULT_VEHTYPE" speed="2.41" pos="7.51" lane="8.0.00_0" slope="0.00"/>
        <vehicle id="12" x="139.92" y="330.66" angle="270.00" type="DEFAULT_VEHTYPE" speed="0.00" pos="5.10" lane="-2.0.00_0" slope="0.00"/>
        <vehicle id="2" x="200.26" y="-1.99" angle="90.00" type="DEFAULT_VEHTYPE" speed="13.39" pos="98.58" lane="-6.0.00_0" slope="0.00"/>
        <vehicle id="3" x="338.82" y="102.36" angle="0.03" type="DEFAULT_VEHTYPE" speed="14.67" pos="91.20" lane="19.0.00_0" slope="0.00"/>
        <vehicle id="4" x="2.08" y="71.93" angle="0.00" type="DEFAULT_VEHTYPE" speed="13.84" pos="60.77" lane="15.0.00_0" slope="0.00"/>
        <vehicle id="5" x="334.92" y="262.79" angle="180.03" type="DEFAULT_VEHTYPE" speed="11.28" pos="19.41" lane=":111_1_0" slope="0.00"/>
        <vehicle id="6" x="334.85" y="140.42" angle="180.04" type="DEFAULT_VEHTYPE" speed="10.49" pos="2.53" lane=":94_1_0" slope="0.00"/>
        <vehicle id="7" x="396.40" y="44.73" angle="0.00" type="DEFAULT_VEHTYPE" speed="10.46" pos="34.66" lane="-8.0.00_0" slope="0.00"/>
        <vehicle id="8" x="58.96" y="2.04" angle="270.03" type="DEFAULT_VEHTYPE" speed="6.87" pos="20.51" lane="5.0.00_0" slope="0.00"/>
        <vehicle id="9" x="88.44" y="244.87" angle="179.99" type="DEFAULT_VEHTYPE" speed="5.43" pos="15.59" lane="-22.0.00_0" slope="0.00"/>
    </timestep>
    <timestep time="13.00">
        <vehicle id="0" x="2.05" y="138.34" angle="359.89" type="DEFAULT_VEHTYPE" speed="14.40" pos="127.18" lane="15.0.00_0" slope="0.00"/>
        <vehicle id="1" x="88.46" y="131.49" angle="180.00" type="DEFAULT_VEHTYPE" speed="13.01" pos="10.79" lane=":128_0_0" slope="0.00"/>
        <vehicle id="10" x="396.40" y="28.14" angle="359.95" type="DEFAULT_VEHTYPE" speed="6.17" pos="18.07" lane="-8.0.00_0" slope="0.00"/>
        <vehicle id="11" x="392.43" y="307.37" angle="180.00" type="DEFAULT_VEHTYPE" speed="3.87" pos="11.39" lane="8.0.00_0" slope="0.00"/>
        <vehicle id="12" x="137.93" y="330.66" angle="270.00" type="DEFAULT_VEHTYPE" speed="1.99" pos="7.09" lane="-2.0.00_0" slope="0.00"/>
        <vehicle id="13" x="338.93" y="287.29" angle="0.03" type="DEFAULT_VEHTYPE" speed="0.00" pos="5.10" lane="16.0.00_0" slope="0.00"/>
        <vehicle id="2" x="213.96" y="-1.99" angle="90.00" type="DEFAULT_VEHTYPE" speed="13.70" pos="112.28" lane="-6.0.00_0" slope="0.00"/>
        <vehicle id="3" x="338.83" y="115.31" angle="0.03" type="DEFAULT_VEHTYPE" speed="12.95" pos="104.15" lane="19.0.00_0" slope="0.00"/>
        <vehicle id="4" x="2.08" y="85.39" angle="0.00" type="DEFAULT_VEHTYPE" speed="13.46" pos="74.23" lane="15.0.00_0" slope="0.00"/>
        <vehicle id="5" x="334.92" y="252.40" angle="180.03" type="DEFAULT_VEHTYPE" speed="10.38" pos="7.18" lane="-17.0.00_0" slope="0.00"/>
        <vehicle id="6" x="334.84" y="128.30" angle="180.05" type="DEFAULT_VEHTYPE" speed="12.12" pos="14.66" lane=":94_1_0" slope="0.00"/>
        <vehicle id="7" x="396.39" y="56.53" angle="0.00" type="DEFAULT_VEHTYPE" speed="11.80" pos="46.46" lane="-8.0.00_0" slope="0.00"/>
        <vehicle id="8" x="50.03" y="2.05" angle="270.03" type="DEFAULT_VEHTYPE" speed="8.93" pos="29.44" lane="5.0.00_0" slope="0.00"/>
        <vehicle id="9" x="88.44" y="237.57" angle="179.99" type="DEFAULT_VEHTYPE" speed="7.30" pos="22.88" lane="-22.0.00_0" slope="0.00"/>
    </timestep>
    <timestep time="14.00">
        <vehicle id="0" x="2.05" y="152.25" angle="0.00" type="DEFAULT_VEHTYPE" speed="13.92" pos="141.09" lane="15.0.00_0" slope="0.00"/>
        <vehicle id="1" x="88.46" y="119.38" angle="180.00" type="DEFAULT_VEHTYPE" speed="12.11" pos="0.90" lane="-24.0.00_0" slope="0.00"/>
        <vehicle id="10" x="396.40" y="36.11" angle="0.00" type="DEFAULT_VEHTYPE" speed="7.97" pos="26.04" lane="-8.0.00_0" slope="0.00"/>
        <vehicle id="11" x="392.42" y="301.07" angle="180.06" type="DEFAULT_VEHTYPE" speed="6.30" pos="17.69" lane="8.0.00_0" slope="0.00"/>
        <vehicle id="12" x="134.08" y="330.66" angle="270.00" type="DEFAULT_VEHTYPE" speed="3.84" pos="10.93" lane="-2.0.00_0" slope="0.00"/>
        <vehicle id="13" x="338.93" y="289.31" angle="0.03" type="DEFAULT_VEHTYPE" speed="2.02" pos="7.12" lane="16.0.00_0" slope="0.00"/>
        <vehicle id="14" x="-1.04" y="5.80" angle="169.63" type="DEFAULT_VEHTYPE" speed="0.00" pos="5.10" lane="20.0.00_0" slope="0.00"/>
        <vehicle id="2" x="227.26" y="-1.99" angle="90.00" type="DEFAULT_VEHTYPE" speed="13.30" pos="125.59" lane="-6.0.00_0" slope="0.00"/>
        <vehicle id="3" x="338.26" y="123.75" angle="353.47" type="DEFAULT_VEHTYPE" speed="8.47" pos="4.34" lane=":94_3_0" slope="0.00"/>
        <vehicle id="4" x="2.07" y="99.35" angle="359.89" type="DEFAULT_VEHTYPE" speed="13.96" pos="88.19" lane="15.0.00_0" slope="0.00"/>
        <vehicle id="5" x="334.91" y="242.14" angle="180.03" type="DEFAULT_VEHTYPE" speed="10.26" pos="17.44" lane="-17.0.00_0" slope="0.00"/>
        <vehicle id="6" x="334.83" y="114.73" angle="180.03" type="DEFAULT_VEHTYPE" speed="13.57" pos="4.72" lane="-19.0.00_0" slope="0.00"/>
        <vehicle id="7" x="396.39" y="67.63" angle="0.00" type="DEFAULT_VEHTYPE" speed="11.10" pos="57.56" lane="-8.0.00_0" slope="0.00"/>
        <vehicle id="8" x="38.69" y="2.05" angle="270.03" type="DEFAULT_VEHTYPE" speed="11.34" pos="40.78" lane="5.0.00_0" slope="0.00"/>
        <vehicle id="9" x="88.45" y="228.37" angle="179.99" type="DEFAULT_VEHTYPE" speed="9.20" pos="32.08" lane="-22.0.00_0" slope="0.00"/>
    </timestep>
    <timestep time="15.00">
        <vehicle id="0" x="2.04" y="166.68" angle="0.00" type="DEFAULT_VEHTYPE" speed="14.43" pos="155.52" lane="15.0.00_0" slope="0.00"/>
        <vehicle id="1" x="88.46" y="107.28" angle="179.99" type="DEFAULT_VEHTYPE" speed="12.10" pos="13.00" lane="-24.0.00_0" slope="0.00"/>
        <vehicle id="10" x="396.40" y="45.49" angle="0.00" type="DEFAULT_VEHTYPE" speed="9.38" pos="35.42" lane="-8.0.00_0" slope="0.00"/>
        <vehicle id="11" x="392.41" y="292.65" angle="180.03" type="DEFAULT_VEHTYPE" speed="8.43" pos="26.11" lane="8.0.00_0" slope="0.00"/>
        <vehicle id="12" x="127.69" y="330.66" angle="270.00" type="DEFAULT_VEHTYPE" speed="6.39" pos="17.33" lane="-2.0.00_0" slope="0.00"/>
        <vehicle id="13" x="338.94" y="293.16" angle="0.03" type="DEFAULT_VEHTYPE" speed="3.85" pos="10.97" lane="16.0.00_0" slope="0.00"/>
        <vehicle id="14" x="-0.46" y="4.53" angle="164.02" type="DEFAULT_VEHTYPE" speed="1.40" pos="6.50" lane="20.0.00_0" slope="0.00"/>
        <vehicle id="15" x="334.95" y="312.72" angle="180.03" type="DEFAULT_VEHTYPE" speed="0.00" pos="5.10" lane="-16.0.00_0" slope="0.00"/>
        <vehicle id="2" x="241.15" y="-1.99" angle="90.00" type="DEFAULT_VEHTYPE" speed="13.89" pos="139.47" lane="-6.0.00_0" slope="0.00"/>
        <vehicle id="3" x="333.25" y="131.43" angle="315.28" type="DEFAULT_VEHTYPE" speed="9.60" pos="5.35" lane=":94_6_0" slope="0.00"/>
        <vehicle id="4" x="2.07" y="112.65" angle="0.00" type="DEFAULT_VEHTYPE" speed="13.30" pos="101.49" lane="15.0.00_0" slope="0.00"/>
        <vehicle id="5" x="334.90" y="231.32" angle="180.03" type="DEFAULT_VEHTYPE" speed="10.82" pos="28.26" lane="-17.0.00_0" slope="0.00"/>
        <vehicle id="6" x="334.82" y="101.42" angle="180.03" type="DEFAULT_VEHTYPE" speed="13.31" pos="18.03" lane="-19.0.00_0" slope="0.00"/>
        <vehicle id="7" x="396.38" y="79.20" angle="359.93" type="DEFAULT_VEHTYPE" speed="11.57" pos="69.13" lane="-8.0.00_0" slope="0.00"/>
        <vehicle id="8" x="25.77" y="2.06" angle="270.03" type="DEFAULT_VEHTYPE" speed="12.92" pos="53.70" lane="5.0.00_0" slope="0.00"/>
        <vehicle id="9" x="88.45" y="217.24" angle="179.99" type="DEFAULT_VEHTYPE" speed="11.13" pos="43.21" lane="-22.0.00_0" slope="0.00"/>
    </timestep>
    <timestep time="16.00">
        <vehicle id="0" x="2.03" y="181.03" angle="0.00" type="DEFAULT_VEHTYPE" speed="14.34" pos="169.87" lane="15.0.00_0" slope="0.00"/>
        <vehicle id="1" x="88.46" y="94.96" angle="179.99" type="DEFAULT_VEHTYPE" speed="12.32" pos="25.32" lane="-24.0.00_0" slope="0.00"/>
        <vehicle id="10" x="396.39" y="56.65" angle="0.00" type="DEFAULT_VEHTYPE" speed="11.16" pos="46.58" lane="-8.0.00_0" slope="0.00"/>
        <vehicle id="11" x="392.40" y="282.43" angle="180.00" type="DEFAULT_VEHTYPE" speed="10.22" pos="36.33" lane="8.0.00_0" slope="0.00"/>
        <vehicle id="12" x="119.88" y="330.66" angle="270.00" type="DEFAULT_VEHTYPE" speed="7.81" pos="25.13" lane="-2.0.00_0" slope="0.00"/>
        <vehicle id="13" x="338.94" y="299.36" angle="0.03" type="DEFAULT_VEHTYPE" speed="6.19" pos="17.17" lane="16.0.00_0" slope="0.00"/>
        <vehicle id="14" x="1.44" y="1.68" angle="149.22" type="DEFAULT_VEHTYPE" speed="3.44" pos="9.94" lane="20.0.00_0" slope="0.00"/>
        <vehicle id="15" x="334.95" y="310.23" angle="180.03" type="DEFAULT_VEHTYPE" speed="2.49" pos="7.59" lane="-16.0.00_0" slope="0.00"/>
        <vehicle id="16" x="173.24" y="326.65" angle="90.00" type="DEFAULT_VEHTYPE" speed="0.00" pos="5.10" lane="1.0.00_0" slope="0.00"/>
        <vehicle id="2" x="254.74" y="-2.00" angle="90.00" type="DEFAULT_VEHTYPE" speed="13.59" pos="153.07" lane="-6.0.00_0" slope="0.00"/>
        <vehicle id="3" x="323.39" y="133.45" angle="274.59" type="DEFAULT_VEHTYPE" speed="10.27" pos="2.34" lane="12.0.00_0" slope="0.00"/>
        <vehicle id="4" x="2.06" y="126.68" angle="0.00" type="DEFAULT_VEHTYPE" speed="14.03" pos="115.52" lane="15.0.00_0" slope="0.00"/>
        <vehicle id="5" x="334.90" y="220.35" angle="180.03" type="DEFAULT_VEHTYPE" speed="10.97" pos="39.23" lane="-17.0.00_0" slope="0.00"/>
        <vehicle id="6" x="334.81" y="87.81" angle="180.03" type="DEFAULT_VEHTYPE" speed="13.61" pos="31.64" lane="-19.0.00_0" slope="0.00"/>
        <vehicle id="7" x="396.38" y="91.26" angle="0.00" type="DEFAULT_VEHTYPE" speed="12.06" pos="81.19" lane="-8.0.00_0" slope="0.00"/>
        <vehicle id="8" x="12.92" y="2.07" angle="270.03" type="DEFAULT_VEHTYPE" speed="12.86" pos="66.55" lane="5.0.00_0" slope="0.00"/>
        <vehicle id="9" x="88.45" y="210.03" angle="179.99" type="DEFAULT_VEHTYPE" speed="7.20" pos="50.42" lane="-22.0.00_0" slope="0.00"/>
    </timestep>
    <timestep time="17.00">
        <vehicle id="0" x="2.02" y="194.74" angle="359.89" type="DEFAULT_VEHTYPE" speed="13.72" pos="183.58" lane="15.0.00_0" slope="0.00"/>
        <vehicle id="1" x="88.47" y="82.67" angle="179.99" type="DEFAULT_VEHTYPE" speed="12.29" pos="37.61" lane="-24.0.00_0" slope="0.00"/>
        <vehicle id="10" x="396.39" y="69.37" angle="0.00" type="DEFAULT_VEHTYPE" speed="12.73" pos="59.30" lane="-8.0.00_0" slope="0.00"/>
        <vehicle id="11" x="392.38" y="269.66" angle="180.11" type="DEFAULT_VEHTYPE" speed="12.77" pos="49.10" lane="8.0.00_0" slope="0.00"/>
        <vehicle id="12" x="110.43" y="330.66" angle="270.00" type="DEFAULT_VEHTYPE" speed="9.45" pos="34.59" lane="-2.0.00_0" slope="0.00"/>
        <vehicle id="13" x="338.94" y="308.07" angle="0.03" type="DEFAULT_VEHTYPE" speed="8.71" pos="25.88" lane="16.0.00_0" slope="0.00"/>
        <vehicle id="14" x="5.58" y="-1.16" angle="124.24" type="DEFAULT_VEHTYPE" speed="5.09" pos="15.03" lane="20.0.00_0" slope="0.00"/>
        <vehicle id="15" x="334.94" y="305.66" angle="180.03" type="DEFAULT_VEHTYPE" speed="4.57" pos="12.16" lane="-16.0.00_0" slope="0.00"/>
        <vehicle id="16" x="175.49" y="326.65" angle="90.00" type="DEFAULT_VEHTYPE" speed="2.25" pos="7.35" lane="1.0.00_0" slope="0.00"/>
        <vehicle id="17" x="320.68" y="2.00" angle="270.00" type="DEFAULT_VEHTYPE" speed="0.00" pos="5.10" lane="6.0.00_0" slope="0.00"/>
        <vehicle id="2" x="267.56" y="-2.00" angle="90.00" type="DEFAULT_VEHTYPE" speed="12.83" pos="165.89" lane="-6.0.00_0" slope="0.00"/>
        <vehicle id="3" x="311.37" y="133.45" angle="270.01" type="DEFAULT_VEHTYPE" speed="12.02" pos="14.36" lane="12.0.00_0" slope="0.00"/>
        <vehicle id="4" x="2.05" y="140.96" angle="359.95" type="DEFAULT_VEHTYPE" speed="14.28" pos="129.80" lane="15.0.00_0" slope="0.00"/>
        <vehicle id="5" x="334.89" y="209.97" angle="180.03" type="DEFAULT_VEHTYPE" speed="10.38" pos="49.61" lane="-17.0.00_0" slope="0.00"/>
        <vehicle id="6" x="334.80" y="74.16" angle="180.03" type="DEFAULT_VEHTYPE" speed="13.65" pos="45.29" lane="-19.0.00_0" slope="0.00"/>
        <vehicle id="7" x="396.38" y="103.26" angle="0.00" type="DEFAULT_VEHTYPE" speed="12.00" pos="93.19" lane="-8.0.00_0" slope="0.00"/>
        <vehicle id="8" x="2.95" y="6.69" angle="319.30" type="DEFAULT_VEHTYPE" speed="11.93" pos="8.90" lane="-20.0.00_0" slope="0.00"/>
        <vehicle id="9" x="89.14" y="203.74" angle="172.22" type="DEFAULT_VEHTYPE" speed="6.34" pos="5.08" lane=":156_1_0" slope="0.00"/>
    </timestep>
    <timestep time="18.00">
        <vehicle id="0" x="2.02" y="208.95" angle="0.00" type="DEFAULT_VEHTYPE" speed="14.21" pos="197.79" lane="15.0.00_0" slope="0.00"/>
        <vehicle id="1" x="88.47" y="70.77" angle="179.99" type="DEFAULT_VEHTYPE" speed="11.90" pos="49.51" lane="-24.0.00_0" slope="0.00"/>
        <vehicle id="10" x="396.38" y="84.47" angle="0.00" type="DEFAULT_VEHTYPE" speed="15.10" pos="74.40" lane="-8.0.00_0" slope="0.00"/>
        <vehicle id="11" x="392.36" y="256.09" angle="180.09" type="DEFAULT_VEHTYPE" speed="13.56" pos="62.67" lane="8.0.00_0" slope="0.00"/>
        <vehicle id="12" x="100.88" y="330.42" angle="267.26" type="DEFAULT_VEHTYPE" speed="9.56" pos="1.89" lane=":77_1_0" slope="0.00"/>
        <vehicle id="13" x="338.95" y="314.22" angle="0.03" type="DEFAULT_VEHTYPE" speed="6.16" pos="32.03" lane="16.0.00_0" slope="0.00"/>
        <vehicle id="14" x="12.72" y="-1.93" angle="92.13" type="DEFAULT_VEHTYPE" speed="7.23" pos="2.50" lane="-5.0.00_0" slope="0.00"/>
        <vehicle id="15" x="334.94" y="299.55" angle="180.03" type="DEFAULT_VEHTYPE" speed="6.11" pos="18.27" lane="-16.0.00_0" slope="0.00"/>
        <vehicle id="16" x="180.21" y="326.65" angle="90.00" type="DEFAULT_VEHTYPE" speed="4.72" pos="12.07" lane="1.0.00_0" slope="0.00"/>
        <vehicle id="17" x="319.01" y="2.00" angle="270.00" type="DEFAULT_VEHTYPE" speed="1.67" pos="6.77" lane="6.0.00_0" slope="0.00"/>
        <vehicle id="18" x="389.29" y="-1.11" angle="79.65" type="DEFAULT_VEHTYPE" speed="0.00" pos="5.10" lane="14.0.00_0" slope="0.00"/>
        <vehicle id="2" x="280.34" y="-2.00" angle="90.00" type="DEFAULT_VEHTYPE" speed="12.78" pos="178.67" lane="-6.0.00_0" slope="0.00"/>
        <vehicle id="3" x="297.45" y="133.45" angle="270.01" type="DEFAULT_VEHTYPE" speed="13.92" pos="28.28" lane="12.0.00_0" slope="0.00"/>
        <vehicle id="4" x="2.05" y="154.75" angle="359.98" type="DEFAULT_VEHTYPE" speed="13.79" pos="143.59" lane="15.0.00_0" slope="0.00"/>
        <vehicle id="5" x="334.00" y="203.62" angle="190.35" type="DEFAULT_VEHTYPE" speed="6.49" pos="4.54" lane=":139_0_0" slope="0.00"/>
        <vehicle id="6" x="334.80" y="60.35" angle="180.03" type="DEFAULT_VEHTYPE" speed="13.81" pos="59.10" lane="-19.0.00_0" slope="0.00"/>
        <vehicle id="7" x="396.37" y="115.30" angle="359.95" type="DEFAULT_VEHTYPE" speed="12.04" pos="105.23" lane="-8.0.00_0" slope="0.00"/>
        <vehicle id="8" x="2.07" y="18.63" angle="0.00" type="DEFAULT_VEHTYPE" speed="12.05" pos="7.47" lane="15.0.00_0" slope="0.00"/>
        <vehicle id="9" x="93.70" y="197.35" angle="136.89" type="DEFAULT_VEHTYPE" speed="8.17" pos="4.88" lane=":156_6_0" slope="0.00"/>
    </timestep>
    <timestep time="19.00">
        <vehicle id="0" x="2.01" y="222.99" angle="0.00" type="DEFAULT_VEHTYPE" speed="14.04" pos="211.83" lane="15.0.00_0" slope="0.00"/>
        <vehicle id="1" x="88.47" y="57.86" angle="179.99" type="DEFAULT_VEHTYPE" speed="12.92" pos="62.43" lane="-24.0.00_0" slope="0.00"/>
        <vehicle id="10" x="396.38" y="98.92" angle="0.00" type="DEFAULT_VEHTYPE" speed="14.45" pos="88.85" lane="-8.0.00_0" slope="0.00"/>
        <vehicle id="11" x="392.35" y="242.85" angle="180.00" type="DEFAULT_VEHTYPE" speed="13.25" pos="75.91" lane="8.0.00_0" slope="0.00"/>
        <vehicle id="12" x="95.85" y="329.52" angle="259.76" type="DEFAULT_VEHTYPE" speed="5.15" pos="7.04" lane=":77_1_0" slope="0.00"/>
        <vehicle id="13" x="338.24" y="322.68" angle="351.82" type="DEFAULT_VEHTYPE" speed="8.50" pos="4.92" lane=":43_3_0" slope="0.00"/>
        <vehicle id="14" x="22.16" y="-1.94" angle="90.03" type="DEFAULT_VEHTYPE" speed="9.44" pos="11.94" lane="-5.0.00_0" slope="0.00"/>
        <vehicle id="15" x="334.93" y="290.85" angle="180.03" type="DEFAULT_VEHTYPE" speed="8.70" pos="26.97" lane="-16.0.00_0" slope="0.00"/>
        <vehicle id="16" x="186.27" y="326.65" angle="90.00" type="DEFAULT_VEHTYPE" speed="6.06" pos="18.13" lane="1.0.00_0" slope="0.00"/>
        <vehicle id="17" x="314.98" y="2.00" angle="270.00" type="DEFAULT_VEHTYPE" speed="4.03" pos="10.80" lane="6.0.00_0" slope="0.00"/>
        <vehicle id="18" x="391.11" y="-0.22" angle="70.28" type="DEFAULT_VEHTYPE" speed="2.03" pos="7.13" lane="14.0.00_0" slope="0.00"/>
        <vehicle id="19" x="172.33" y="269.12" angle="89.99" type="DEFAULT_VEHTYPE" speed="0.00" pos="5.10" lane="-10.0.00_0" slope="0.00"/>
        <vehicle id="2" x="294.10" y="-2.00" angle="90.00" type="DEFAULT_VEHTYPE" speed="13.76" pos="192.43" lane="-6.0.00_0" slope="0.00"/>
        <vehicle id="3" x="282.92" y="133.45" angle="270.01" type="DEFAULT_VEHTYPE" speed="14.53" pos="42.81" lane="12.0.00_0" slope="0.00"/>