<?xml version="1.0" encoding="UTF-8"?>

<!-- generated on Wed Aug 14 12:04:13 2019 by Eclipse SUMO Version 1.2.0
<configuration xmlns:xsi="http://www.w3.org/2001/XMLSchema-instance" xsi:noNamespaceSchemaLocation="http://sumo.dlr.de/xsd/sumoConfiguration.xsd">

    <input>
        <net-file value="Town01.net.xml"/>
        <route-files value="trips.trips.xml"/>
    </input>

    <output>
        <netstate-dump value="test.log"/>
        <fcd-output value="Town02_Car150_4.log"/>
    </output>

    <time>
        <begin value="0"/>
        <end value="10000"/>
    </time>

</configuration>
-->

<fcd-export xmlns:xsi="http://www.w3.org/2001/XMLSchema-instance" xsi:noNamespaceSchemaLocation="http://sumo.dlr.de/xsd/fcd_file.xsd">
    <timestep time="0.00">
        <vehicle id="0" x="334.92" y="254.48" angle="180.03" type="DEFAULT_VEHTYPE" speed="0.00" pos="5.10" lane="-17.0.00_0" slope="0.00"/>
    </timestep>
    <timestep time="1.00">
        <vehicle id="0" x="334.92" y="253.16" angle="180.03" type="DEFAULT_VEHTYPE" speed="1.32" pos="6.42" lane="-17.0.00_0" slope="0.00"/>
        <vehicle id="1" x="378.88" y="2.00" angle="270.00" type="DEFAULT_VEHTYPE" speed="0.00" pos="5.10" lane="7.0.00_0" slope="0.00"/>
    </timestep>
    <timestep time="2.00">
        <vehicle id="0" x="334.91" y="249.96" angle="180.03" type="DEFAULT_VEHTYPE" speed="3.20" pos="9.62" lane="-17.0.00_0" slope="0.00"/>
        <vehicle id="1" x="376.37" y="2.00" angle="270.00" type="DEFAULT_VEHTYPE" speed="2.51" pos="7.61" lane="7.0.00_0" slope="0.00"/>
        <vehicle id="2" x="353.39" y="326.61" angle="90.03" type="DEFAULT_VEHTYPE" speed="0.00" pos="5.10" lane="0.0.00_0" slope="0.00"/>
    </timestep>
    <timestep time="3.00">
        <vehicle id="0" x="334.91" y="244.74" angle="180.03" type="DEFAULT_VEHTYPE" speed="5.22" pos="14.84" lane="-17.0.00_0" slope="0.00"/>
        <vehicle id="1" x="371.75" y="2.00" angle="270.00" type="DEFAULT_VEHTYPE" speed="4.62" pos="12.23" lane="7.0.00_0" slope="0.00"/>
        <vehicle id="2" x="355.14" y="326.61" angle="90.03" type="DEFAULT_VEHTYPE" speed="1.75" pos="6.85" lane="0.0.00_0" slope="0.00"/>
        <vehicle id="3" x="334.95" y="312.72" angle="180.03" type="DEFAULT_VEHTYPE" speed="0.00" pos="5.10" lane="-16.0.00_0" slope="0.00"/>
    </timestep>
    <timestep time="4.00">
        <vehicle id="0" x="334.91" y="237.84" angle="180.03" type="DEFAULT_VEHTYPE" speed="6.90" pos="21.74" lane="-17.0.00_0" slope="0.00"/>
        <vehicle id="1" x="365.79" y="2.00" angle="270.00" type="DEFAULT_VEHTYPE" speed="5.96" pos="18.19" lane="7.0.00_0" slope="0.00"/>
        <vehicle id="2" x="359.11" y="326.60" angle="90.03" type="DEFAULT_VEHTYPE" speed="3.97" pos="10.82" lane="0.0.00_0" slope="0.00"/>
        <vehicle id="3" x="334.95" y="310.93" angle="180.03" type="DEFAULT_VEHTYPE" speed="1.79" pos="6.89" lane="-16.0.00_0" slope="0.00"/>
        <vehicle id="4" x="6.04" y="330.15" angle="264.42" type="DEFAULT_VEHTYPE" speed="0.00" pos="5.10" lane="13.0.00_0" slope="0.00"/>
    </timestep>
    <timestep time="5.00">
        <vehicle id="0" x="334.90" y="228.65" angle="180.03" type="DEFAULT_VEHTYPE" speed="9.19" pos="30.93" lane="-17.0.00_0" slope="0.00"/>
        <vehicle id="1" x="358.20" y="2.00" angle="270.00" type="DEFAULT_VEHTYPE" speed="7.59" pos="25.78" lane="7.0.00_0" slope="0.00"/>
        <vehicle id="2" x="364.76" y="326.60" angle="90.03" type="DEFAULT_VEHTYPE" speed="5.65" pos="16.47" lane="0.0.00_0" slope="0.00"/>
        <vehicle id="3" x="334.94" y="307.04" angle="180.03" type="DEFAULT_VEHTYPE" speed="3.90" pos="10.78" lane="-16.0.00_0" slope="0.00"/>
        <vehicle id="4" x="3.87" y="329.28" angle="254.58" type="DEFAULT_VEHTYPE" speed="2.34" pos="7.44" lane="13.0.00_0" slope="0.00"/>
        <vehicle id="5" x="389.29" y="-1.11" angle="79.65" type="DEFAULT_VEHTYPE" speed="0.00" pos="5.10" lane="14.0.00_0" slope="0.00"/>
    </timestep>
    <timestep time="6.00">
        <vehicle id="0" x="334.90" y="217.29" angle="180.03" type="DEFAULT_VEHTYPE" speed="11.36" pos="42.29" lane="-17.0.00_0" slope="0.00"/>
        <vehicle id="1" x="349.24" y="2.00" angle="270.00" type="DEFAULT_VEHTYPE" speed="8.96" pos="34.74" lane="7.0.00_0" slope="0.00"/>
        <vehicle id="2" x="372.47" y="326.60" angle="90.03" type="DEFAULT_VEHTYPE" speed="7.71" pos="24.18" lane="0.0.00_0" slope="0.00"/>
        <vehicle id="3" x="334.94" y="301.71" angle="180.03" type="DEFAULT_VEHTYPE" speed="5.32" pos="16.11" lane="-16.0.00_0" slope="0.00"/>
        <vehicle id="4" x="0.85" y="327.05" angle="236.64" type="DEFAULT_VEHTYPE" speed="3.78" pos="11.22" lane="13.0.00_0" slope="0.00"/>
        <vehicle id="5" x="391.11" y="-0.22" angle="70.28" type="DEFAULT_VEHTYPE" speed="2.03" pos="7.13" lane="14.0.00_0" slope="0.00"/>
        <vehicle id="6" x="139.95" y="273.12" angle="269.99" type="DEFAULT_VEHTYPE" speed="0.00" pos="5.10" lane="9.0.00_0" slope="0.00"/>
    </timestep>
    <timestep time="7.00">
        <vehicle id="0" x="334.89" y="203.44" angle="180.05" type="DEFAULT_VEHTYPE" speed="13.84" pos="4.59" lane=":139_1_0" slope="0.00"/>
        <vehicle id="1" x="342.34" y="3.48" angle="286.29" type="DEFAULT_VEHTYPE" speed="7.19" pos="5.74" lane=":60_2_0" slope="0.00"/>
        <vehicle id="2" x="381.97" y="326.59" angle="90.03" type="DEFAULT_VEHTYPE" speed="9.50" pos="33.68" lane="0.0.00_0" slope="0.00"/>
        <vehicle id="3" x="334.94" y="294.09" angle="180.03" type="DEFAULT_VEHTYPE" speed="7.62" pos="23.73" lane="-16.0.00_0" slope="0.00"/>
        <vehicle id="4" x="-1.80" y="321.53" angle="202.58" type="DEFAULT_VEHTYPE" speed="6.23" pos="17.45" lane="13.0.00_0" slope="0.00"/>
        <vehicle id="5" x="394.10" y="2.38" angle="51.76" type="DEFAULT_VEHTYPE" speed="3.98" pos="11.11" lane="14.0.00_0" slope="0.00"/>
        <vehicle id="6" x="137.43" y="273.12" angle="269.99" type="DEFAULT_VEHTYPE" speed="2.52" pos="7.62" lane="9.0.00_0" slope="0.00"/>
    </timestep>
    <timestep time="8.00">
        <vehicle id="0" x="334.87" y="189.94" angle="180.05" type="DEFAULT_VEHTYPE" speed="13.50" pos="18.09" lane=":139_1_0" slope="0.00"/>
        <vehicle id="1" x="339.11" y="8.75" angle="336.34" type="DEFAULT_VEHTYPE" speed="6.48" pos="12.23" lane=":60_2_0" slope="0.00"/>
        <vehicle id="2" x="391.56" y="322.97" angle="130.82" type="DEFAULT_VEHTYPE" speed="10.96" pos="5.98" lane="-11.0.00_0" slope="0.00"/>
        <vehicle id="3" x="334.93" y="285.03" angle="180.03" type="DEFAULT_VEHTYPE" speed="9.07" pos="32.79" lane="-16.0.00_0" slope="0.00"/>
        <vehicle id="4" x="-1.97" y="313.54" angle="180.00" type="DEFAULT_VEHTYPE" speed="8.09" pos="5.11" lane="-15.0.00_0" slope="0.00"/>
        <vehicle id="5" x="396.36" y="8.40" angle="16.46" type="DEFAULT_VEHTYPE" speed="6.54" pos="17.66" lane="14.0.00_0" slope="0.00"/>
        <vehicle id="6" x="133.28" y="273.12" angle="269.99" type="DEFAULT_VEHTYPE" speed="4.15" pos="11.77" lane="9.0.00_0" slope="0.00"/>
        <vehicle id="8" x="338.89" y="213.13" angle="0.03" type="DEFAULT_VEHTYPE" speed="0.00" pos="5.10" lane="17.0.00_0" slope="0.00"/>
    </timestep>
    <timestep time="9.00">
        <vehicle id="0" x="334.87" y="175.30" angle="180.03" type="DEFAULT_VEHTYPE" speed="14.64" pos="9.64" lane="-18.0.00_0" slope="0.00"/>
        <vehicle id="1" x="338.77" y="15.86" angle="359.55" type="DEFAULT_VEHTYPE" speed="7.13" pos="4.70" lane="19.0.00_0" slope="0.00"/>
        <vehicle id="2" x="392.43" y="309.79" angle="180.11" type="DEFAULT_VEHTYPE" speed="13.43" pos="8.97" lane="8.0.00_0" slope="0.00"/>
        <vehicle id="3" x="334.93" y="273.95" angle="180.03" type="DEFAULT_VEHTYPE" speed="11.08" pos="8.25" lane=":111_1_0" slope="0.00"/>
        <vehicle id="4" x="-1.98" y="302.89" angle="180.11" type="DEFAULT_VEHTYPE" speed="10.65" pos="15.76" lane="-15.0.00_0" slope="0.00"/>
        <vehicle id="5" x="396.41" y="16.57" angle="0.00" type="DEFAULT_VEHTYPE" speed="8.27" pos="6.50" lane="-8.0.00_0" slope="0.00"/>
        <vehicle id="6" x="127.58" y="273.12" angle="269.99" type="DEFAULT_VEHTYPE" speed="5.70" pos="17.47" lane="9.0.00_0" slope="0.00"/>
        <vehicle id="7" x="-1.97" y="313.55" angle="180.00" type="DEFAULT_VEHTYPE" speed="0.00" pos="5.10" lane="-15.0.00_0" slope="0.00"/>
        <vehicle id="8" x="338.89" y="215.62" angle="0.03" type="DEFAULT_VEHTYPE" speed="2.49" pos="7.59" lane="17.0.00_0" slope="0.00"/>
        <vehicle id="9" x="6.04" y="330.15" angle="264.42" type="DEFAULT_VEHTYPE" speed="0.00" pos="5.10" lane="13.0.00_0" slope="0.00"/>
    </timestep>
    <timestep time="10.00">
        <vehicle id="0" x="334.86" y="161.47" angle="180.03" type="DEFAULT_VEHTYPE" speed="13.84" pos="23.48" lane="-18.0.00_0" slope="0.00"/>
        <vehicle id="1" x="338.78" y="25.49" angle="0.03" type="DEFAULT_VEHTYPE" speed="9.64" pos="14.33" lane="19.0.00_0" slope="0.00"/>
        <vehicle id="10" x="172.33" y="269.12" angle="89.99" type="DEFAULT_VEHTYPE" speed="0.00" pos="5.10" lane="-10.0.00_0" slope="0.00"/>
        <vehicle id="2" x="392.41" y="295.94" angle="180.11" type="DEFAULT_VEHTYPE" speed="13.85" pos="22.82" lane="8.0.00_0" slope="0.00"/>
        <vehicle id="3" x="334.92" y="260.57" angle="180.03" type="DEFAULT_VEHTYPE" speed="13.38" pos="21.63" lane=":111_1_0" slope="0.00"/>
        <vehicle id="4" x="-1.98" y="289.72" angle="180.00" type="DEFAULT_VEHTYPE" speed="13.17" pos="28.93" lane="-15.0.00_0" slope="0.00"/>
        <vehicle id="5" x="396.40" y="26.16" angle="359.89" type="DEFAULT_VEHTYPE" speed="9.59" pos="16.09" lane="-8.0.00_0" slope="0.00"/>
        <vehicle id="6" x="119.35" y="273.11" angle="269.99" type="DEFAULT_VEHTYPE" speed="8.23" pos="25.70" lane="9.0.00_0" slope="0.00"/>
        <vehicle id="7" x="-1.97" y="311.56" angle="180.00" type="DEFAULT_VEHTYPE" speed="1.99" pos="7.09" lane="-15.0.00_0" slope="0.00"/>
        <vehicle id="8" x="338.90" y="219.98" angle="0.03" type="DEFAULT_VEHTYPE" speed="4.36" pos="11.95" lane="17.0.00_0" slope="0.00"/>
        <vehicle id="9" x="4.09" y="329.38" angle="255.58" type="DEFAULT_VEHTYPE" speed="2.10" pos="7.20" lane="13.0.00_0" slope="0.00"/>
    </timestep>
    <timestep time="11.00">
        <vehicle id="0" x="334.85" y="146.83" angle="180.03" type="DEFAULT_VEHTYPE" speed="14.65" pos="38.12" lane="-18.0.00_0" slope="0.00"/>
        <vehicle id="1" x="338.78" y="37.28" angle="0.03" type="DEFAULT_VEHTYPE" speed="11.79" pos="26.12" lane="19.0.00_0" slope="0.00"/>
        <vehicle id="10" x="174.21" y="269.12" angle="89.99" type="DEFAULT_VEHTYPE" speed="1.88" pos="6.98" lane="-10.0.00_0" slope="0.00"/>
        <vehicle id="11" x="2.07" y="16.26" angle="0.00" type="DEFAULT_VEHTYPE" speed="0.00" pos="5.10" lane="15.0.00_0" slope="0.00"/>
        <vehicle id="2" x="392.40" y="283.05" angle="180.00" type="DEFAULT_VEHTYPE" speed="12.89" pos="35.71" lane="8.0.00_0" slope="0.00"/>
        <vehicle id="3" x="334.91" y="246.69" angle="180.03" type="DEFAULT_VEHTYPE" speed="13.87" pos="12.89" lane="-17.0.00_0" slope="0.00"/>
        <vehicle id="4" x="-1.99" y="275.83" angle="180.11" type="DEFAULT_VEHTYPE" speed="13.89" pos="42.82" lane="-15.0.00_0" slope="0.00"/>
        <vehicle id="5" x="396.40" y="37.60" angle="0.00" type="DEFAULT_VEHTYPE" speed="11.44" pos="27.53" lane="-8.0.00_0" slope="0.00"/>
        <vehicle id="6" x="109.90" y="273.11" angle="269.99" type="DEFAULT_VEHTYPE" speed="9.44" pos="35.15" lane="9.0.00_0" slope="0.00"/>
        <vehicle id="7" x="-1.97" y="307.16" angle="180.00" type="DEFAULT_VEHTYPE" speed="4.40" pos="11.49" lane="-15.0.00_0" slope="0.00"/>
        <vehicle id="8" x="338.90" y="226.88" angle="0.03" type="DEFAULT_VEHTYPE" speed="6.90" pos="18.85" lane="17.0.00_0" slope="0.00"/>
        <vehicle id="9" x="0.96" y="327.16" angle="237.32" type="DEFAULT_VEHTYPE" speed="3.86" pos="11.06" lane="13.0.00_0" slope="0.00"/>
    </timestep>
    <timestep time="12.00">
        <vehicle id="0" x="334.84" y="132.68" angle="180.05" type="DEFAULT_VEHTYPE" speed="14.15" pos="10.28" lane=":94_1_0" slope="0.00"/>
        <vehicle id="1" x="338.79" y="49.09" angle="0.03" type="DEFAULT_VEHTYPE" speed="11.81" pos="37.93" lane="19.0.00_0" slope="0.00"/>
        <vehicle id="10" x="178.03" y="269.12" angle="89.99" type="DEFAULT_VEHTYPE" speed="3.82" pos="10.80" lane="-10.0.00_0" slope="0.00"/>
        <vehicle id="11" x="2.07" y="17.69" angle="0.00" type="DEFAULT_VEHTYPE" speed="1.43" pos="6.53" lane="15.0.00_0" slope="0.00"/>
        <vehicle id="2" x="392.38" y="269.18" angle="180.11" type="DEFAULT_VEHTYPE" speed="13.86" pos="49.58" lane="8.0.00_0" slope="0.00"/>
        <vehicle id="3" x="334.90" y="232.53" angle="180.03" type="DEFAULT_VEHTYPE" speed="14.16" pos="27.05" lane="-17.0.00_0" slope="0.00"/>
        <vehicle id="4" x="-1.99" y="262.11" angle="180.00" type="DEFAULT_VEHTYPE" speed="13.72" pos="56.54" lane="-15.0.00_0" slope="0.00"/>
        <vehicle id="5" x="396.39" y="48.81" angle="359.94" type="DEFAULT_VEHTYPE" speed="11.21" pos="38.74" lane="-8.0.00_0" slope="0.00"/>
        <vehicle id="6" x="104.20" y="273.11" angle="269.99" type="DEFAULT_VEHTYPE" speed="5.71" pos="40.85" lane="9.0.00_0" slope="0.00"/>
        <vehicle id="7" x="-1.98" y="300.41" angle="180.04" type="DEFAULT_VEHTYPE" speed="6.75" pos="18.24" lane="-15.0.00_0" slope="0.00"/>
        <vehicle id="8" x="338.91" y="236.00" angle="0.03" type="DEFAULT_VEHTYPE" speed="9.12" pos="27.97" lane="17.0.00_0" slope="0.00"/>
        <vehicle id="9" x="-1.65" y="322.57" angle="208.61" type="DEFAULT_VEHTYPE" speed="5.34" pos="16.40" lane="13.0.00_0" slope="0.00"/>
    </timestep>
    <timestep time="13.00">
        <vehicle id="0" x="334.83" y="118.92" angle="180.05" type="DEFAULT_VEHTYPE" speed="13.75" pos="0.53" lane="-19.0.00_0" slope="0.00"/>
        <vehicle id="1" x="338.80" y="61.91" angle="0.03" type="DEFAULT_VEHTYPE" speed="12.82" pos="50.75" lane="19.0.00_0" slope="0.00"/>
        <vehicle id="10" x="184.28" y="269.12" angle="89.99" type="DEFAULT_VEHTYPE" speed="6.25" pos="17.05" lane="-10.0.00_0" slope="0.00"/>
        <vehicle id="11" x="2.07" y="21.73" angle="0.00" type="DEFAULT_VEHTYPE" speed="4.03" pos="10.57" lane="15.0.00_0" slope="0.00"/>
        <vehicle id="12" x="172.33" y="269.12" angle="89.99" type="DEFAULT_VEHTYPE" speed="0.00" pos="5.10" lane="-10.0.00_0" slope="0.00"/>
        <vehicle id="13" x="334.95" y="312.72" angle="180.03" type="DEFAULT_VEHTYPE" speed="0.00" pos="5.10" lane="-16.0.00_0" slope="0.00"/>
        <vehicle id="2" x="392.36" y="255.63" angle="180.11" type="DEFAULT_VEHTYPE" speed="13.56" pos="63.13" lane="8.0.00_0" slope="0.00"/>
        <vehicle id="3" x="334.90" y="217.91" angle="180.03" type="DEFAULT_VEHTYPE" speed="14.62" pos="41.67" lane="-17.0.00_0" slope="0.00"/>
        <vehicle id="4" x="-2.00" y="248.04" angle="180.01" type="DEFAULT_VEHTYPE" speed="14.07" pos="70.61" lane="-15.0.00_0" slope="0.00"/>
        <vehicle id="5" x="396.39" y="59.54" angle="0.00" type="DEFAULT_VEHTYPE" speed="10.73" pos="49.47" lane="-8.0.00_0" slope="0.00"/>
        <vehicle id="6" x="96.79" y="274.14" angle="282.00" type="DEFAULT_VEHTYPE" speed="7.57" pos="4.82" lane=":184_2_0" slope="0.00"/>
        <vehicle id="7" x="-1.98" y="291.44" angle="180.00" type="DEFAULT_VEHTYPE" speed="8.97" pos="27.21" lane="-15.0.00_0" slope="0.00"/>
        <vehicle id="8" x="338.91" y="247.56" angle="0.03" type="DEFAULT_VEHTYPE" speed="11.55" pos="39.53" lane="17.0.00_0" slope="0.00"/>
        <vehicle id="9" x="-1.97" y="315.87" angle="180.87" type="DEFAULT_VEHTYPE" speed="6.82" pos="2.78" lane="-15.0.00_0" slope="0.00"/>
    </timestep>
    <timestep time="14.00">
        <vehicle id="0" x="334.82" y="105.41" angle="180.03" type="DEFAULT_VEHTYPE" speed="13.51" pos="14.04" lane="-19.0.00_0" slope="0.00"/>
        <vehicle id="1" x="338.80" y="73.89" angle="0.03" type="DEFAULT_VEHTYPE" speed="11.98" pos="62.73" lane="19.0.00_0" slope="0.00"/>
        <vehicle id="10" x="192.32" y="269.12" angle="89.99" type="DEFAULT_VEHTYPE" speed="8.04" pos="25.09" lane="-10.0.00_0" slope="0.00"/>
        <vehicle id="11" x="2.07" y="27.93" angle="0.00" type="DEFAULT_VEHTYPE" speed="6.21" pos="16.77" lane="15.0.00_0" slope="0.00"/>
        <vehicle id="12" x="174.14" y="269.12" angle="89.99" type="DEFAULT_VEHTYPE" speed="1.81" pos="6.91" lane="-10.0.00_0" slope="0.00"/>
        <vehicle id="13" x="334.95" y="310.23" angle="180.03" type="DEFAULT_VEHTYPE" speed="2.49" pos="7.59" lane="-16.0.00_0" slope="0.00"/>
        <vehicle id="14" x="334.83" y="114.35" angle="180.03" type="DEFAULT_VEHTYPE" speed="0.00" pos="5.10" lane="-19.0.00_0" slope="0.00"/>
        <vehicle id="2" x="392.35" y="242.40" angle="180.00" type="DEFAULT_VEHTYPE" speed="13.23" pos="76.36" lane="8.0.00_0" slope="0.00"/>
        <vehicle id="3" x="334.89" y="203.18" angle="180.05" type="DEFAULT_VEHTYPE" speed="14.73" pos="4.85" lane=":139_1_0" slope="0.00"/>
        <vehicle id="4" x="-2.00" y="234.09" angle="180.00" type="DEFAULT_VEHTYPE" speed="13.95" pos="84.56" lane="-15.0.00_0" slope="0.00"/>
        <vehicle id="5" x="396.39" y="70.72" angle="0.00" type="DEFAULT_VEHTYPE" speed="11.18" pos="60.65" lane="-8.0.00_0" slope="0.00"/>
        <vehicle id="6" x="92.79" y="279.89" angle="336.22" type="DEFAULT_VEHTYPE" speed="7.38" pos="12.21" lane=":184_2_0" slope="0.00"/>
        <vehicle id="7" x="-1.98" y="280.27" angle="180.03" type="DEFAULT_VEHTYPE" speed="11.17" pos="38.38" lane="-15.0.00_0" slope="0.00"/>
        <vehicle id="8" x="338.92" y="260.23" angle="0.03" type="DEFAULT_VEHTYPE" speed="12.67" pos="0.65" lane=":111_2_0" slope="0.00"/>
        <vehicle id="9" x="-1.97" y="306.82" angle="180.00" type="DEFAULT_VEHTYPE" speed="9.05" pos="11.83" lane="-15.0.00_0" slope="0.00"/>
    </timestep>
    <timestep time="15.00">
        <vehicle id="0" x="334.81" y="91.61" angle="180.03" type="DEFAULT_VEHTYPE" speed="13.80" pos="27.84" lane="-19.0.00_0" slope="0.00"/>
        <vehicle id="1" x="338.81" y="86.12" angle="0.03" type="DEFAULT_VEHTYPE" speed="12.23" pos="74.96" lane="19.0.00_0" slope="0.00"/>
        <vehicle id="10" x="202.25" y="269.12" angle="89.99" type="DEFAULT_VEHTYPE" speed="9.93" pos="35.02" lane="-10.0.00_0" slope="0.00"/>
        <vehicle id="11" x="2.07" y="36.57" angle="0.00" type="DEFAULT_VEHTYPE" speed="8.63" pos="25.41" lane="15.0.00_0" slope="0.00"/>
        <vehicle id="12" x="178.46" y="269.12" angle="89.99" type="DEFAULT_VEHTYPE" speed="4.31" pos="11.23" lane="-10.0.00_0" slope="0.00"/>
        <vehicle id="13" x="334.94" y="305.66" angle="180.03" type="DEFAULT_VEHTYPE" speed="4.57" pos="12.16" lane="-16.0.00_0" slope="0.00"/>
        <vehicle id="14" x="334.83" y="112.63" angle="180.03" type="DEFAULT_VEHTYPE" speed="1.72" pos="6.82" lane="-19.0.00_0" slope="0.00"/>
        <vehicle id="15" x="389.29" y="-1.11" angle="79.65" type="DEFAULT_VEHTYPE" speed="0.00" pos="5.10" lane="14.0.00_0" slope="0.00"/>
        <vehicle id="2" x="392.35" y="228.41" angle="180.00" type="DEFAULT_VEHTYPE" speed="13.99" pos="90.35" lane="8.0.00_0" slope="0.00"/>
        <vehicle id="3" x="334.87" y="188.39" angle="180.05" type="DEFAULT_VEHTYPE" speed="14.79" pos="19.64" lane=":139_1_0" slope="0.00"/>
        <vehicle id="4" x="-1.99" y="220.88" angle="180.00" type="DEFAULT_VEHTYPE" speed="13.21" pos="97.77" lane="-15.0.00_0" slope="0.00"/>
        <vehicle id="5" x="396.38" y="82.26" angle="0.00" type="DEFAULT_VEHTYPE" speed="11.53" pos="72.19" lane="-8.0.00_0" slope="0.00"/>
        <vehicle id="6" x="92.44" y="287.20" angle="359.58" type="DEFAULT_VEHTYPE" speed="7.34" pos="4.74" lane="21.0.00_0" slope="0.00"/>
        <vehicle id="7" x="-1.99" y="268.44" angle="180.00" type="DEFAULT_VEHTYPE" speed="11.83" pos="50.21" lane="-15.0.00_0" slope="0.00"/>
        <vehicle id="8" x="338.93" y="272.07" angle="0.03" type="DEFAULT_VEHTYPE" speed="11.85" pos="12.50" lane=":111_2_0" slope="0.00"/>
        <vehicle id="9" x="-1.98" y="296.42" angle="180.00" type="DEFAULT_VEHTYPE" speed="10.40" pos="22.23" lane="-15.0.00_0" slope="0.00"/>
    </timestep>
    <timestep time="16.00">
        <vehicle id="0" x="334.81" y="77.60" angle="180.03" type="DEFAULT_VEHTYPE" speed="14.01" pos="41.85" lane="-19.0.00_0" slope="0.00"/>
        <vehicle id="1" x="338.82" y="98.55" angle="0.03" type="DEFAULT_VEHTYPE" speed="12.43" pos="87.39" lane="19.0.00_0" slope="0.00"/>
        <vehicle id="10" x="213.50" y="269.13" angle="89.99" type="DEFAULT_VEHTYPE" speed="11.25" pos="46.26" lane="-10.0.00_0" slope="0.00"/>
        <vehicle id="11" x="2.07" y="47.23" angle="0.00" type="DEFAULT_VEHTYPE" speed="10.67" pos="36.07" lane="15.0.00_0" slope="0.00"/>
        <vehicle id="12" x="184.89" y="269.12" angle="89.99" type="DEFAULT_VEHTYPE" speed="6.44" pos="17.66" lane="-10.0.00_0" slope="0.00"/>
        <vehicle id="13" x="334.94" y="299.55" angle="180.03" type="DEFAULT_VEHTYPE" speed="6.11" pos="18.27" lane="-16.0.00_0" slope="0.00"/>
        <vehicle id="14" x="334.82" y="109.49" angle="180.03" type="DEFAULT_VEHTYPE" speed="3.14" pos="9.96" lane="-19.0.00_0" slope="0.00"/>
        <vehicle id="15" x="390.80" y="-0.42" angle="72.36" type="DEFAULT_VEHTYPE" speed="1.66" pos="6.76" lane="14.0.00_0" slope="0.00"/>
        <vehicle id="16" x="320.59" y="330.62" angle="270.00" type="DEFAULT_VEHTYPE" speed="0.00" pos="5.10" lane="-1.0.00_0" slope="0.00"/>
        <vehicle id="2" x="392.35" y="215.07" angle="180.00" type="DEFAULT_VEHTYPE" speed="13.34" pos="103.69" lane="8.0.00_0" slope="0.00"/>
        <vehicle id="3" x="334.86" y="173.74" angle="180.03" type="DEFAULT_VEHTYPE" speed="14.65" pos="11.20" lane="-18.0.00_0" slope="0.00"/>
        <vehicle id="4" x="-1.98" y="207.76" angle="179.91" type="DEFAULT_VEHTYPE" speed="13.12" pos="110.89" lane="-15.0.00_0" slope="0.00"/>
        <vehicle id="5" x="396.38" y="93.52" angle="0.00" type="DEFAULT_VEHTYPE" speed="11.26" pos="83.45" lane="-8.0.00_0" slope="0.00"/>
        <vehicle id="6" x="92.44" y="295.88" angle="359.98" type="DEFAULT_VEHTYPE" speed="8.68" pos="13.42" lane="21.0.00_0" slope="0.00"/>
        <vehicle id="7" x="-1.99" y="256.89" angle="180.00" type="DEFAULT_VEHTYPE" speed="11.55" pos="61.76" lane="-15.0.00_0" slope="0.00"/>
        <vehicle id="8" x="338.93" y="284.17" angle="0.03" type="DEFAULT_VEHTYPE" speed="12.11" pos="1.98" lane="16.0.00_0" slope="0.00"/>
        <vehicle id="9" x="-1.98" y="285.51" angle="180.00" type="DEFAULT_VEHTYPE" speed="10.91" pos="33.14" lane="-15.0.00_0" slope="0.00"/>
    </timestep>
    <timestep time="17.00">
        <vehicle id="0" x="334.80" y="63.38" angle="180.03" type="DEFAULT_VEHTYPE" speed="14.22" pos="56.07" lane="-19.0.00_0" slope="0.00"/>
        <vehicle id="1" x="338.83" y="110.87" angle="0.03" type="DEFAULT_VEHTYPE" speed="12.32" pos="99.71" lane="19.0.00_0" slope="0.00"/>
        <vehicle id="10" x="226.54" y="269.13" angle="89.99" type="DEFAULT_VEHTYPE" speed="13.04" pos="59.31" lane="-10.0.00_0" slope="0.00"/>
        <vehicle id="11" x="2.08" y="60.32" angle="0.00" type="DEFAULT_VEHTYPE" speed="13.09" pos="49.16" lane="15.0.00_0" slope="0.00"/>
        <vehicle id="12" x="193.54" y="269.12" angle="89.99" type="DEFAULT_VEHTYPE" speed="8.65" pos="26.31" lane="-10.0.00_0" slope="0.00"/>
        <vehicle id="13" x="334.93" y="290.85" angle="180.03" type="DEFAULT_VEHTYPE" speed="8.70" pos="26.97" lane="-16.0.00_0" slope="0.00"/>
        <vehicle id="14" x="334.82" y="103.84" angle="180.03" type="DEFAULT_VEHTYPE" speed="5.65" pos="15.61" lane="-19.0.00_0" slope="0.00"/>
        <vehicle id="15" x="393.23" y="1.41" angle="57.84" type="DEFAULT_VEHTYPE" speed="3.05" pos="9.81" lane="14.0.00_0" slope="0.00"/>
        <vehicle id="16" x="318.86" y="330.63" angle="270.06" type="DEFAULT_VEHTYPE" speed="1.73" pos="6.83" lane="-1.0.00_0" slope="0.00"/>
        <vehicle id="17" x="-1.97" y="313.55" angle="180.00" type="DEFAULT_VEHTYPE" speed="0.00" pos="5.10" lane="-15.0.00_0" slope="0.00"/>
        <vehicle id="2" x="392.36" y="202.04" angle="179.89" type="DEFAULT_VEHTYPE" speed="13.02" pos="116.72" lane="8.0.00_0" slope="0.00"/>
        <vehicle id="3" x="334.86" y="160.01" angle="180.03" type="DEFAULT_VEHTYPE" speed="13.74" pos="24.94" lane="-18.0.00_0" slope="0.00"/>
        <vehicle id="4" x="-1.98" y="193.52" angle="180.00" type="DEFAULT_VEHTYPE" speed="14.24" pos="125.13" lane="-15.0.00_0" slope="0.00"/>
        <vehicle id="5" x="396.38" y="104.55" angle="0.00" type="DEFAULT_VEHTYPE" speed="11.03" pos="94.48" lane="-8.0.00_0" slope="0.00"/>
        <vehicle id="6" x="92.43" y="306.61" angle="359.98" type="DEFAULT_VEHTYPE" speed="10.74" pos="24.16" lane="21.0.00_0" slope="0.00"/>
        <vehicle id="7" x="-2.00" y="245.14" angle="180.00" type="DEFAULT_VEHTYPE" speed="11.75" pos="73.51" lane="-15.0.00_0" slope="0.00"/>
        <vehicle id="8" x="338.94" y="296.62" angle="0.03" type="DEFAULT_VEHTYPE" speed="12.45" pos="14.43" lane="16.0.00_0" slope="0.00"/>
        <vehicle id="9" x="-1.99" y="274.76" angle="180.05" type="DEFAULT_VEHTYPE" speed="10.76" pos="43.90" lane="-15.0.00_0" slope="0.00"/>
    </timestep>
    <timestep time="18.00">
        <vehicle id="0" x="334.79" y="49.56" angle="180.03" type="DEFAULT_VEHTYPE" speed="13.82" pos="69.89" lane="-19.0.00_0" slope="0.00"/>
        <vehicle id="1" x="338.83" y="123.53" angle="0.05" type="DEFAULT_VEHTYPE" speed="12.67" pos="4.08" lane=":94_2_0" slope="0.00"/>
        <vehicle id="10" x="241.26" y="269.13" angle="89.99" type="DEFAULT_VEHTYPE" speed="14.72" pos="74.02" lane="-10.0.00_0" slope="0.00"/>
        <vehicle id="11" x="2.08" y="73.45" angle="0.00" type="DEFAULT_VEHTYPE" speed="13.13" pos="62.29" lane="15.0.00_0" slope="0.00"/>
        <vehicle id="12" x="204.21" y="269.12" angle="89.99" type="DEFAULT_VEHTYPE" speed="10.67" pos="36.97" lane="-10.0.00_0" slope="0.00"/>
        <vehicle id="13" x="334.93" y="282.25" angle="180.03" type="DEFAULT_VEHTYPE" speed="8.60" pos="35.57" lane="-16.0.00_0" slope="0.00"/>
        <vehicle id="14" x="334.82" y="96.88" angle="180.03" type="DEFAULT_VEHTYPE" speed="6.96" pos="22.57" lane="-19.0.00_0" slope="0.00"/>
        <vehicle id="15" x="395.76" y="5.43" angle="32.68" type="DEFAULT_VEHTYPE" speed="4.80" pos="14.61" lane="14.0.00_0" slope="0.00"/>
        <vehicle id="16" x="315.63" y="330.63" angle="270.11" type="DEFAULT_VEHTYPE" speed="3.23" pos="10.06" lane="-1.0.00_0" slope="0.00"/>
        <vehicle id="17" x="-1.97" y="311.94" angle="180.00" type="DEFAULT_VEHTYPE" speed="1.61" pos="6.71" lane="-15.0.00_0" slope="0.00"/>
        <vehicle id="18" x="172.33" y="269.12" angle="89.99" type="DEFAULT_VEHTYPE" speed="0.00" pos="5.10" lane="-10.0.00_0" slope="0.00"/>
        <vehicle id="2" x="392.36" y="188.16" angle="180.00" type="DEFAULT_VEHTYPE" speed="13.88" pos="130.60" lane="8.0.00_0" slope="0.00"/>
        <vehicle id="3" x="334.85" y="145.98" angle="180.03" type="DEFAULT_VEHTYPE" speed="14.03" pos="38.97" lane="-18.0.00_0" slope="0.00"/>
        <vehicle id="4" x="-1.97" y="179.70" angle="180.00" type="DEFAULT_VEHTYPE" speed="13.81" pos="138.95" lane="-15.0.00_0" slope="0.00"/>
        <vehicle id="5" x="396.37" y="115.11" angle="359.94" type="DEFAULT_VEHTYPE" speed="10.56" pos="105.04" lane="-8.0.00_0" slope="0.00"/>
        <vehicle id="6" x="92.43" y="313.47" angle="359.98" type="DEFAULT_VEHTYPE" speed="6.86" pos="31.02" lane="21.0.00_0" slope="0.00"/>
        <vehicle id="7" x="-2.00" y="232.91" angle="180.00" type="DEFAULT_VEHTYPE" speed="12.23" pos="85.74" lane="-15.0.00_0" slope="0.00"/>
        <vehicle id="8" x="338.94" y="307.38" angle="0.03" type="DEFAULT_VEHTYPE" speed="10.76" pos="25.19" lane="16.0.00_0" slope="0.00"/>
        <vehicle id="9" x="-1.99" y="262.87" angle="180.00" type="DEFAULT_VEHTYPE" speed="11.88" pos="55.78" lane="-15.0.00_0" slope="0.00"/>
    </timestep>
    <timestep time="19.00">
        <vehicle id="0" x="334.78" y="35.01" angle="180.03" type="DEFAULT_VEHTYPE" speed="14.55" pos="84.44" lane="-19.0.00_0" slope="0.00"/>
        <vehicle id="1" x="338.84" y="136.05" angle="0.05" type="DEFAULT_VEHTYPE" speed="12.51" pos="16.60" lane=":94_2_0" slope="0.00"/>
        <vehicle id="10" x="256.31" y="269.13" angle="89.99" type="DEFAULT_VEHTYPE" speed="15.05" pos="89.07" lane="-10.0.00_0" slope="0.00"/>
        <vehicle id="11" x="2.08" y="86.46" angle="0.00" type="DEFAULT_VEHTYPE" speed="13.01" pos="75.30" lane="15.0.00_0" slope="0.00"/>
        <vehicle id="12" x="216.52" y="269.13" angle="89.99" type="DEFAULT_VEHTYPE" speed="12.31" pos="49.28" lane="-10.0.00_0" slope="0.00"/>
        <vehicle id="13" x="331.56" y="274.78" angle="216.22" type="DEFAULT_VEHTYPE" speed="8.61" pos="8.56" lane=":111_0_0" slope="0.00"/>
        <vehicle id="14" x="334.81" y="87.72" angle="180.03" type="DEFAULT_VEHTYPE" speed="9.16" pos="31.73" lane="-19.0.00_0" slope="0.00"/>
        <vehicle id="15" x="396.41" y="12.17" angle="2.12" type="DEFAULT_VEHTYPE" speed="6.92" pos="2.10" lane="-8.0.00_0" slope="0.00"/>
        <vehicle id="16" x="309.81" y="330.63" angle="270.00" type="DEFAULT_VEHTYPE" speed="5.82" pos="15.88" lane="-1.0.00_0" slope="0.00"/>
        <vehicle id="17" x="-1.97" y="308.64" angle="180.00" type="DEFAULT_VEHTYPE" speed="3.30" pos="10.01" lane="-15.0.00_0" slope="0.00"/>
        <vehicle id="18" x="174.41" y="269.12" angle="89.99" type="DEFAULT_VEHTYPE" speed="2.08" pos="7.18" lane="-10.0.00_0" slope="0.00"/>
        <vehicle id="2" x="392.36" y="174.45" angle="180.00" type="DEFAULT_VEHTYPE" speed="13.71" pos="144.31" lane="8.0.00_0" slope="0.00"/>
        <vehicle id="3" x="334.84" y="132.20" angle="180.05" type="DEFAULT_VEHTYPE" speed="13.77" pos="10.75" lane=":94_1_0" slope="0.00"/>
        <vehicle id="4" x="-1.96" y="165.59" angle="180.00" type="DEFAULT_VEHTYPE" speed="14.11" pos="153.06" lane="-15.0.00_0" slope="0.00"/>
        <vehicle id="5" x="396.37" y="125.44" angle="0.00" type="DEFAULT_VEHTYPE" speed="10.33" pos="115.37" lane="-8.0.00_0" slope="0.00"/>