<?xml version="1.0" encoding="UTF-8"?>

<!-- generated on Thu Jun  6 11:01:14 2019 by Eclipse SUMO Version 1.2.0
<configuration xmlns:xsi="http://www.w3.org/2001/XMLSchema-instance" xsi:noNamespaceSchemaLocation="http://sumo.dlr.de/xsd/sumoConfiguration.xsd">

    <input>
        <net-file value="Town01.net.xml"/>
        <route-files value="trips.trips.xml"/>
    </input>

    <output>
        <netstate-dump value="aoki2.log"/>
        <fcd-output value="Town01_Car50.log"/>
    </output>

    <time>
        <begin value="0"/>
        <end value="10000"/>
    </time>

</configuration>
-->

<fcd-export xmlns:xsi="http://www.w3.org/2001/XMLSchema-instance" xsi:noNamespaceSchemaLocation="http://sumo.dlr.de/xsd/fcd_file.xsd">
    <timestep time="0.00">
        <vehicle id="0" x="106.55" y="269.11" angle="89.99" type="DEFAULT_VEHTYPE" speed="0.00" pos="5.10" lane="-9.0.00_0" slope="0.00"/>
    </timestep>
    <timestep time="1.00">
        <vehicle id="0" x="108.10" y="269.11" angle="89.99" type="DEFAULT_VEHTYPE" speed="1.55" pos="6.65" lane="-9.0.00_0" slope="0.00"/>
        <vehicle id="1" x="353.39" y="326.61" angle="90.03" type="DEFAULT_VEHTYPE" speed="0.00" pos="5.10" lane="0.0.00_0" slope="0.00"/>
    </timestep>
    <timestep time="2.00">
        <vehicle id="0" x="111.29" y="269.11" angle="89.99" type="DEFAULT_VEHTYPE" speed="3.19" pos="9.84" lane="-9.0.00_0" slope="0.00"/>
        <vehicle id="1" x="355.14" y="326.61" angle="90.03" type="DEFAULT_VEHTYPE" speed="1.75" pos="6.85" lane="0.0.00_0" slope="0.00"/>
        <vehicle id="2" x="396.41" y="15.17" angle="0.00" type="DEFAULT_VEHTYPE" speed="0.00" pos="5.10" lane="-8.0.00_0" slope="0.00"/>
    </timestep>
    <timestep time="3.00">
        <vehicle id="0" x="116.36" y="269.11" angle="89.99" type="DEFAULT_VEHTYPE" speed="5.06" pos="14.91" lane="-9.0.00_0" slope="0.00"/>
        <vehicle id="1" x="359.11" y="326.60" angle="90.03" type="DEFAULT_VEHTYPE" speed="3.97" pos="10.82" lane="0.0.00_0" slope="0.00"/>
        <vehicle id="2" x="396.41" y="16.49" angle="0.00" type="DEFAULT_VEHTYPE" speed="1.32" pos="6.42" lane="-8.0.00_0" slope="0.00"/>
        <vehicle id="3" x="173.24" y="326.65" angle="90.00" type="DEFAULT_VEHTYPE" speed="0.00" pos="5.10" lane="1.0.00_0" slope="0.00"/>
    </timestep>
    <timestep time="4.00">
        <vehicle id="0" x="122.93" y="269.11" angle="89.99" type="DEFAULT_VEHTYPE" speed="6.58" pos="21.48" lane="-9.0.00_0" slope="0.00"/>
        <vehicle id="1" x="364.76" y="326.60" angle="90.03" type="DEFAULT_VEHTYPE" speed="5.65" pos="16.47" lane="0.0.00_0" slope="0.00"/>
        <vehicle id="2" x="396.41" y="20.31" angle="0.00" type="DEFAULT_VEHTYPE" speed="3.82" pos="10.24" lane="-8.0.00_0" slope="0.00"/>
        <vehicle id="3" x="175.49" y="326.65" angle="90.00" type="DEFAULT_VEHTYPE" speed="2.25" pos="7.35" lane="1.0.00_0" slope="0.00"/>
        <vehicle id="4" x="334.83" y="114.35" angle="180.03" type="DEFAULT_VEHTYPE" speed="0.00" pos="5.10" lane="-19.0.00_0" slope="0.00"/>
    </timestep>
    <timestep time="5.00">
        <vehicle id="0" x="131.56" y="269.12" angle="89.99" type="DEFAULT_VEHTYPE" speed="8.62" pos="30.11" lane="-9.0.00_0" slope="0.00"/>
        <vehicle id="1" x="372.47" y="326.60" angle="90.03" type="DEFAULT_VEHTYPE" speed="7.71" pos="24.18" lane="0.0.00_0" slope="0.00"/>
        <vehicle id="2" x="396.40" y="26.39" angle="359.89" type="DEFAULT_VEHTYPE" speed="6.09" pos="16.32" lane="-8.0.00_0" slope="0.00"/>
        <vehicle id="3" x="180.21" y="326.65" angle="90.00" type="DEFAULT_VEHTYPE" speed="4.72" pos="12.07" lane="1.0.00_0" slope="0.00"/>
        <vehicle id="4" x="334.83" y="112.97" angle="180.03" type="DEFAULT_VEHTYPE" speed="1.38" pos="6.48" lane="-19.0.00_0" slope="0.00"/>
        <vehicle id="5" x="352.89" y="-2.00" angle="90.00" type="DEFAULT_VEHTYPE" speed="0.00" pos="5.10" lane="-7.0.00_0" slope="0.00"/>
    </timestep>
    <timestep time="6.00">
        <vehicle id="0" x="142.30" y="269.12" angle="89.99" type="DEFAULT_VEHTYPE" speed="10.74" pos="40.85" lane="-9.0.00_0" slope="0.00"/>
        <vehicle id="1" x="381.97" y="326.59" angle="90.03" type="DEFAULT_VEHTYPE" speed="9.50" pos="33.68" lane="0.0.00_0" slope="0.00"/>
        <vehicle id="2" x="396.40" y="34.27" angle="0.00" type="DEFAULT_VEHTYPE" speed="7.88" pos="24.20" lane="-8.0.00_0" slope="0.00"/>
        <vehicle id="3" x="186.27" y="326.65" angle="90.00" type="DEFAULT_VEHTYPE" speed="6.06" pos="18.13" lane="1.0.00_0" slope="0.00"/>
        <vehicle id="4" x="334.82" y="109.90" angle="180.03" type="DEFAULT_VEHTYPE" speed="3.07" pos="9.55" lane="-19.0.00_0" slope="0.00"/>
        <vehicle id="5" x="354.87" y="-2.00" angle="90.00" type="DEFAULT_VEHTYPE" speed="1.98" pos="7.08" lane="-7.0.00_0" slope="0.00"/>
        <vehicle id="6" x="378.88" y="2.00" angle="270.00" type="DEFAULT_VEHTYPE" speed="0.00" pos="5.10" lane="7.0.00_0" slope="0.00"/>
    </timestep>
    <timestep time="7.00">
        <vehicle id="0" x="148.63" y="269.64" angle="84.00" type="DEFAULT_VEHTYPE" speed="6.37" pos="3.62" lane=":167_5_0" slope="0.00"/>
        <vehicle id="1" x="391.56" y="322.97" angle="130.82" type="DEFAULT_VEHTYPE" speed="10.96" pos="5.98" lane="-11.0.00_0" slope="0.00"/>
        <vehicle id="2" x="396.40" y="44.39" angle="0.00" type="DEFAULT_VEHTYPE" speed="10.11" pos="34.32" lane="-8.0.00_0" slope="0.00"/>
        <vehicle id="3" x="193.76" y="326.65" angle="90.00" type="DEFAULT_VEHTYPE" speed="7.48" pos="25.61" lane="1.0.00_0" slope="0.00"/>
        <vehicle id="4" x="334.82" y="105.11" angle="180.03" type="DEFAULT_VEHTYPE" speed="4.79" pos="14.34" lane="-19.0.00_0" slope="0.00"/>
        <vehicle id="5" x="358.54" y="-2.00" angle="90.00" type="DEFAULT_VEHTYPE" speed="3.67" pos="10.75" lane="-7.0.00_0" slope="0.00"/>
        <vehicle id="6" x="376.37" y="2.00" angle="270.00" type="DEFAULT_VEHTYPE" speed="2.51" pos="7.61" lane="7.0.00_0" slope="0.00"/>
        <vehicle id="7" x="334.87" y="179.84" angle="180.03" type="DEFAULT_VEHTYPE" speed="0.00" pos="5.10" lane="-18.0.00_0" slope="0.00"/>
    </timestep>
    <timestep time="8.00">
        <vehicle id="0" x="155.42" y="273.46" angle="52.03" type="DEFAULT_VEHTYPE" speed="8.10" pos="3.71" lane=":167_6_0" slope="0.00"/>
        <vehicle id="1" x="392.43" y="310.32" angle="180.11" type="DEFAULT_VEHTYPE" speed="12.90" pos="8.44" lane="8.0.00_0" slope="0.00"/>
        <vehicle id="2" x="396.39" y="57.09" angle="0.00" type="DEFAULT_VEHTYPE" speed="12.70" pos="47.02" lane="-8.0.00_0" slope="0.00"/>
        <vehicle id="3" x="202.77" y="326.65" angle="90.00" type="DEFAULT_VEHTYPE" speed="9.01" pos="34.63" lane="1.0.00_0" slope="0.00"/>
        <vehicle id="4" x="334.82" y="98.44" angle="180.03" type="DEFAULT_VEHTYPE" speed="6.67" pos="21.01" lane="-19.0.00_0" slope="0.00"/>
        <vehicle id="5" x="363.53" y="-2.00" angle="90.00" type="DEFAULT_VEHTYPE" speed="5.00" pos="15.74" lane="-7.0.00_0" slope="0.00"/>
        <vehicle id="6" x="371.75" y="2.00" angle="270.00" type="DEFAULT_VEHTYPE" speed="4.62" pos="12.23" lane="7.0.00_0" slope="0.00"/>
        <vehicle id="7" x="334.87" y="178.13" angle="180.03" type="DEFAULT_VEHTYPE" speed="1.71" pos="6.81" lane="-18.0.00_0" slope="0.00"/>
        <vehicle id="8" x="352.89" y="-2.00" angle="90.00" type="DEFAULT_VEHTYPE" speed="0.00" pos="5.10" lane="-7.0.00_0" slope="0.00"/>
    </timestep>
    <timestep time="9.00">
        <vehicle id="0" x="158.08" y="282.50" angle="7.88" type="DEFAULT_VEHTYPE" speed="9.60" pos="0.09" lane="25.0.00_0" slope="0.00"/>
        <vehicle id="1" x="392.41" y="297.47" angle="180.09" type="DEFAULT_VEHTYPE" speed="12.85" pos="21.29" lane="8.0.00_0" slope="0.00"/>
        <vehicle id="2" x="396.39" y="70.84" angle="0.00" type="DEFAULT_VEHTYPE" speed="13.75" pos="60.77" lane="-8.0.00_0" slope="0.00"/>
        <vehicle id="3" x="213.15" y="326.65" angle="90.00" type="DEFAULT_VEHTYPE" speed="10.38" pos="45.00" lane="1.0.00_0" slope="0.00"/>
        <vehicle id="4" x="334.81" y="90.35" angle="180.03" type="DEFAULT_VEHTYPE" speed="8.09" pos="29.10" lane="-19.0.00_0" slope="0.00"/>
        <vehicle id="5" x="371.04" y="-2.00" angle="90.00" type="DEFAULT_VEHTYPE" speed="7.51" pos="23.25" lane="-7.0.00_0" slope="0.00"/>
        <vehicle id="6" x="365.79" y="2.00" angle="270.00" type="DEFAULT_VEHTYPE" speed="5.96" pos="18.19" lane="7.0.00_0" slope="0.00"/>
        <vehicle id="7" x="334.86" y="173.89" angle="180.03" type="DEFAULT_VEHTYPE" speed="4.24" pos="11.05" lane="-18.0.00_0" slope="0.00"/>
        <vehicle id="8" x="354.96" y="-2.00" angle="90.00" type="DEFAULT_VEHTYPE" speed="2.07" pos="7.17" lane="-7.0.00_0" slope="0.00"/>
        <vehicle id="9" x="106.58" y="195.20" angle="90.03" type="DEFAULT_VEHTYPE" speed="0.00" pos="5.10" lane="-4.0.00_0" slope="0.00"/>
    </timestep>
    <timestep time="10.00">
        <vehicle id="0" x="158.10" y="294.30" angle="0.08" type="DEFAULT_VEHTYPE" speed="11.81" pos="11.89" lane="25.0.00_0" slope="0.00"/>
        <vehicle id="1" x="392.40" y="285.58" angle="180.08" type="DEFAULT_VEHTYPE" speed="11.89" pos="33.18" lane="8.0.00_0" slope="0.00"/>
        <vehicle id="10" x="88.44" y="255.36" angle="179.99" type="DEFAULT_VEHTYPE" speed="0.00" pos="5.10" lane="-22.0.00_0" slope="0.00"/>
        <vehicle id="2" x="396.38" y="84.36" angle="0.00" type="DEFAULT_VEHTYPE" speed="13.52" pos="74.29" lane="-8.0.00_0" slope="0.00"/>
        <vehicle id="3" x="225.76" y="326.65" angle="90.00" type="DEFAULT_VEHTYPE" speed="12.61" pos="57.61" lane="1.0.00_0" slope="0.00"/>
        <vehicle id="4" x="334.81" y="80.16" angle="180.03" type="DEFAULT_VEHTYPE" speed="10.19" pos="39.29" lane="-19.0.00_0" slope="0.00"/>
        <vehicle id="5" x="380.06" y="-2.00" angle="90.00" type="DEFAULT_VEHTYPE" speed="9.02" pos="32.27" lane="-7.0.00_0" slope="0.00"/>
        <vehicle id="6" x="358.20" y="2.00" angle="270.00" type="DEFAULT_VEHTYPE" speed="7.59" pos="25.78" lane="7.0.00_0" slope="0.00"/>
        <vehicle id="7" x="334.86" y="167.63" angle="180.03" type="DEFAULT_VEHTYPE" speed="6.26" pos="17.31" lane="-18.0.00_0" slope="0.00"/>
        <vehicle id="8" x="358.89" y="-2.00" angle="90.00" type="DEFAULT_VEHTYPE" speed="3.93" pos="11.10" lane="-7.0.00_0" slope="0.00"/>
        <vehicle id="9" x="108.71" y="195.20" angle="90.03" type="DEFAULT_VEHTYPE" speed="2.13" pos="7.23" lane="-4.0.00_0" slope="0.00"/>
    </timestep>
    <timestep time="11.00">
        <vehicle id="0" x="158.11" y="306.05" angle="0.08" type="DEFAULT_VEHTYPE" speed="11.75" pos="23.64" lane="25.0.00_0" slope="0.00"/>
        <vehicle id="1" x="392.39" y="272.72" angle="180.04" type="DEFAULT_VEHTYPE" speed="12.86" pos="46.04" lane="8.0.00_0" slope="0.00"/>
        <vehicle id="10" x="88.44" y="252.81" angle="179.99" type="DEFAULT_VEHTYPE" speed="2.55" pos="7.65" lane="-22.0.00_0" slope="0.00"/>
        <vehicle id="11" x="352.89" y="-2.00" angle="90.00" type="DEFAULT_VEHTYPE" speed="0.00" pos="5.10" lane="-7.0.00_0" slope="0.00"/>
        <vehicle id="2" x="396.38" y="97.41" angle="0.00" type="DEFAULT_VEHTYPE" speed="13.05" pos="87.34" lane="-8.0.00_0" slope="0.00"/>
        <vehicle id="3" x="240.02" y="326.65" angle="90.00" type="DEFAULT_VEHTYPE" speed="14.26" pos="71.88" lane="1.0.00_0" slope="0.00"/>
        <vehicle id="4" x="334.80" y="67.47" angle="180.03" type="DEFAULT_VEHTYPE" speed="12.69" pos="51.98" lane="-19.0.00_0" slope="0.00"/>
        <vehicle id="5" x="390.51" y="-0.55" angle="73.69" type="DEFAULT_VEHTYPE" speed="10.69" pos="6.44" lane="14.0.00_0" slope="0.00"/>
        <vehicle id="6" x="349.24" y="2.00" angle="270.00" type="DEFAULT_VEHTYPE" speed="8.96" pos="34.74" lane="7.0.00_0" slope="0.00"/>
        <vehicle id="7" x="334.86" y="160.07" angle="180.03" type="DEFAULT_VEHTYPE" speed="7.56" pos="24.87" lane="-18.0.00_0" slope="0.00"/>
        <vehicle id="8" x="364.87" y="-2.00" angle="90.00" type="DEFAULT_VEHTYPE" speed="5.98" pos="17.08" lane="-7.0.00_0" slope="0.00"/>
        <vehicle id="9" x="112.60" y="195.19" angle="90.03" type="DEFAULT_VEHTYPE" speed="3.89" pos="11.12" lane="-4.0.00_0" slope="0.00"/>
    </timestep>
    <timestep time="12.00">
        <vehicle id="0" x="158.12" y="314.16" angle="0.08" type="DEFAULT_VEHTYPE" speed="8.11" pos="31.75" lane="25.0.00_0" slope="0.00"/>
        <vehicle id="1" x="392.37" y="260.16" angle="180.09" type="DEFAULT_VEHTYPE" speed="12.56" pos="58.60" lane="8.0.00_0" slope="0.00"/>
        <vehicle id="10" x="88.44" y="248.05" angle="179.99" type="DEFAULT_VEHTYPE" speed="4.76" pos="12.41" lane="-22.0.00_0" slope="0.00"/>
        <vehicle id="11" x="354.75" y="-2.00" angle="90.00" type="DEFAULT_VEHTYPE" speed="1.86" pos="6.96" lane="-7.0.00_0" slope="0.00"/>
        <vehicle id="12" x="92.44" y="287.56" angle="359.98" type="DEFAULT_VEHTYPE" speed="0.00" pos="5.10" lane="21.0.00_0" slope="0.00"/>
        <vehicle id="2" x="396.37" y="110.24" angle="359.94" type="DEFAULT_VEHTYPE" speed="12.83" pos="100.17" lane="-8.0.00_0" slope="0.00"/>
        <vehicle id="3" x="254.51" y="326.64" angle="90.00" type="DEFAULT_VEHTYPE" speed="14.48" pos="86.36" lane="1.0.00_0" slope="0.00"/>
        <vehicle id="4" x="334.79" y="54.07" angle="180.03" type="DEFAULT_VEHTYPE" speed="13.41" pos="65.38" lane="-19.0.00_0" slope="0.00"/>
        <vehicle id="5" x="396.34" y="8.16" angle="17.78" type="DEFAULT_VEHTYPE" speed="10.97" pos="17.41" lane="14.0.00_0" slope="0.00"/>
        <vehicle id="6" x="338.17" y="2.00" angle="270.00" type="DEFAULT_VEHTYPE" speed="11.06" pos="9.62" lane=":60_3_0" slope="0.00"/>
        <vehicle id="7" x="334.85" y="150.92" angle="180.03" type="DEFAULT_VEHTYPE" speed="9.16" pos="34.03" lane="-18.0.00_0" slope="0.00"/>
        <vehicle id="8" x="372.73" y="-2.00" angle="90.00" type="DEFAULT_VEHTYPE" speed="7.86" pos="24.94" lane="-7.0.00_0" slope="0.00"/>
        <vehicle id="9" x="118.82" y="195.19" angle="90.03" type="DEFAULT_VEHTYPE" speed="6.22" pos="17.34" lane="-4.0.00_0" slope="0.00"/>
    </timestep>
    <timestep time="13.00">
        <vehicle id="0" x="157.09" y="323.84" angle="349.71" type="DEFAULT_VEHTYPE" speed="9.81" pos="6.07" lane=":26_3_0" slope="0.00"/>
        <vehicle id="1" x="392.35" y="247.94" angle="180.11" type="DEFAULT_VEHTYPE" speed="12.22" pos="70.82" lane="8.0.00_0" slope="0.00"/>
        <vehicle id="10" x="88.44" y="240.87" angle="179.99" type="DEFAULT_VEHTYPE" speed="7.17" pos="19.58" lane="-22.0.00_0" slope="0.00"/>
        <vehicle id="11" x="358.51" y="-2.00" angle="90.00" type="DEFAULT_VEHTYPE" speed="3.76" pos="10.72" lane="-7.0.00_0" slope="0.00"/>
        <vehicle id="12" x="92.44" y="289.62" angle="359.98" type="DEFAULT_VEHTYPE" speed="2.06" pos="7.16" lane="21.0.00_0" slope="0.00"/>
        <vehicle id="13" x="338.93" y="287.29" angle="0.03" type="DEFAULT_VEHTYPE" speed="0.00" pos="5.10" lane="16.0.00_0" slope="0.00"/>
        <vehicle id="2" x="396.37" y="123.48" angle="0.00" type="DEFAULT_VEHTYPE" speed="13.24" pos="113.41" lane="-8.0.00_0" slope="0.00"/>
        <vehicle id="3" x="268.97" y="326.64" angle="90.00" type="DEFAULT_VEHTYPE" speed="14.46" pos="100.82" lane="1.0.00_0" slope="0.00"/>
        <vehicle id="4" x="334.79" y="41.04" angle="180.03" type="DEFAULT_VEHTYPE" speed="13.03" pos="78.41" lane="-19.0.00_0" slope="0.00"/>
        <vehicle id="5" x="396.41" y="18.95" angle="0.00" type="DEFAULT_VEHTYPE" speed="10.90" pos="8.88" lane="-8.0.00_0" slope="0.00"/>
        <vehicle id="6" x="325.77" y="2.00" angle="270.00" type="DEFAULT_VEHTYPE" speed="12.40" pos="0.01" lane="6.0.00_0" slope="0.00"/>
        <vehicle id="7" x="334.85" y="144.23" angle="180.03" type="DEFAULT_VEHTYPE" speed="6.69" pos="40.72" lane="-18.0.00_0" slope="0.00"/>
        <vehicle id="8" x="381.93" y="-2.00" angle="90.00" type="DEFAULT_VEHTYPE" speed="9.20" pos="34.14" lane="-7.0.00_0" slope="0.00"/>
        <vehicle id="9" x="127.62" y="195.19" angle="90.03" type="DEFAULT_VEHTYPE" speed="8.80" pos="26.14" lane="-4.0.00_0" slope="0.00"/>
    </timestep>
    <timestep time="14.00">
        <vehicle id="0" x="150.73" y="329.86" angle="301.35" type="DEFAULT_VEHTYPE" speed="9.03" pos="15.10" lane=":26_3_0" slope="0.00"/>
        <vehicle id="1" x="392.35" y="234.95" angle="180.00" type="DEFAULT_VEHTYPE" speed="12.99" pos="83.81" lane="8.0.00_0" slope="0.00"/>
        <vehicle id="10" x="88.45" y="231.54" angle="179.99" type="DEFAULT_VEHTYPE" speed="9.33" pos="28.91" lane="-22.0.00_0" slope="0.00"/>
        <vehicle id="11" x="363.74" y="-2.00" angle="90.00" type="DEFAULT_VEHTYPE" speed="5.23" pos="15.95" lane="-7.0.00_0" slope="0.00"/>
        <vehicle id="12" x="92.44" y="293.27" angle="359.98" type="DEFAULT_VEHTYPE" speed="3.65" pos="10.81" lane="21.0.00_0" slope="0.00"/>
        <vehicle id="13" x="338.93" y="289.31" angle="0.03" type="DEFAULT_VEHTYPE" speed="2.02" pos="7.12" lane="16.0.00_0" slope="0.00"/>
        <vehicle id="14" x="74.37" y="2.03" angle="270.03" type="DEFAULT_VEHTYPE" speed="0.00" pos="5.10" lane="5.0.00_0" slope="0.00"/>
        <vehicle id="2" x="396.37" y="136.78" angle="0.00" type="DEFAULT_VEHTYPE" speed="13.30" pos="126.71" lane="-8.0.00_0" slope="0.00"/>
        <vehicle id="3" x="283.03" y="326.64" angle="90.00" type="DEFAULT_VEHTYPE" speed="14.06" pos="114.88" lane="1.0.00_0" slope="0.00"/>
        <vehicle id="4" x="334.78" y="27.01" angle="180.03" type="DEFAULT_VEHTYPE" speed="14.02" pos="92.44" lane="-19.0.00_0" slope="0.00"/>
        <vehicle id="5" x="396.40" y="29.30" angle="0.00" type="DEFAULT_VEHTYPE" speed="10.35" pos="19.23" lane="-8.0.00_0" slope="0.00"/>
        <vehicle id="6" x="312.18" y="2.00" angle="270.00" type="DEFAULT_VEHTYPE" speed="13.59" pos="13.60" lane="6.0.00_0" slope="0.00"/>
        <vehicle id="7" x="333.85" y="138.06" angle="191.54" type="DEFAULT_VEHTYPE" speed="6.32" pos="5.05" lane=":94_0_0" slope="0.00"/>
        <vehicle id="8" x="392.78" y="0.97" angle="61.05" type="DEFAULT_VEHTYPE" speed="11.56" pos="9.18" lane="14.0.00_0" slope="0.00"/>
        <vehicle id="9" x="138.24" y="195.18" angle="90.03" type="DEFAULT_VEHTYPE" speed="10.62" pos="36.76" lane="-4.0.00_0" slope="0.00"/>
    </timestep>
    <timestep time="15.00">
        <vehicle id="0" x="141.79" y="330.66" angle="272.81" type="DEFAULT_VEHTYPE" speed="9.00" pos="3.23" lane="-2.0.00_0" slope="0.00"/>
        <vehicle id="1" x="392.35" y="222.60" angle="180.00" type="DEFAULT_VEHTYPE" speed="12.34" pos="96.16" lane="8.0.00_0" slope="0.00"/>
        <vehicle id="10" x="88.45" y="220.29" angle="179.99" type="DEFAULT_VEHTYPE" speed="11.25" pos="40.16" lane="-22.0.00_0" slope="0.00"/>
        <vehicle id="11" x="371.17" y="-2.00" angle="90.00" type="DEFAULT_VEHTYPE" speed="7.43" pos="23.38" lane="-7.0.00_0" slope="0.00"/>
        <vehicle id="12" x="92.44" y="298.78" angle="359.98" type="DEFAULT_VEHTYPE" speed="5.52" pos="16.33" lane="21.0.00_0" slope="0.00"/>
        <vehicle id="13" x="338.94" y="293.16" angle="0.03" type="DEFAULT_VEHTYPE" speed="3.85" pos="10.97" lane="16.0.00_0" slope="0.00"/>
        <vehicle id="14" x="73.01" y="2.03" angle="270.03" type="DEFAULT_VEHTYPE" speed="1.36" pos="6.46" lane="5.0.00_0" slope="0.00"/>
        <vehicle id="15" x="389.29" y="-1.11" angle="79.65" type="DEFAULT_VEHTYPE" speed="0.00" pos="5.10" lane="14.0.00_0" slope="0.00"/>
        <vehicle id="2" x="396.37" y="150.56" angle="0.00" type="DEFAULT_VEHTYPE" speed="13.78" pos="140.49" lane="-8.0.00_0" slope="0.00"/>
        <vehicle id="3" x="297.32" y="326.64" angle="90.00" type="DEFAULT_VEHTYPE" speed="14.29" pos="129.17" lane="1.0.00_0" slope="0.00"/>
        <vehicle id="4" x="334.77" y="17.49" angle="180.03" type="DEFAULT_VEHTYPE" speed="9.52" pos="101.96" lane="-19.0.00_0" slope="0.00"/>
        <vehicle id="5" x="396.40" y="40.02" angle="0.00" type="DEFAULT_VEHTYPE" speed="10.72" pos="29.95" lane="-8.0.00_0" slope="0.00"/>
        <vehicle id="6" x="297.89" y="2.00" angle="270.00" type="DEFAULT_VEHTYPE" speed="14.29" pos="27.89" lane="6.0.00_0" slope="0.00"/>
        <vehicle id="7" x="329.61" y="134.02" angle="229.90" type="DEFAULT_VEHTYPE" speed="6.04" pos="11.09" lane=":94_0_0" slope="0.00"/>
        <vehicle id="8" x="396.41" y="12.80" angle="1.23" type="DEFAULT_VEHTYPE" speed="12.99" pos="2.73" lane="-8.0.00_0" slope="0.00"/>
        <vehicle id="9" x="149.74" y="195.18" angle="90.03" type="DEFAULT_VEHTYPE" speed="11.50" pos="48.26" lane="-4.0.00_0" slope="0.00"/>
    </timestep>
    <timestep time="16.00">
        <vehicle id="0" x="130.80" y="330.66" angle="270.00" type="DEFAULT_VEHTYPE" speed="10.99" pos="14.22" lane="-2.0.00_0" slope="0.00"/>
        <vehicle id="1" x="392.35" y="210.58" angle="180.00" type="DEFAULT_VEHTYPE" speed="12.02" pos="108.18" lane="8.0.00_0" slope="0.00"/>
        <vehicle id="10" x="88.45" y="207.23" angle="179.99" type="DEFAULT_VEHTYPE" speed="13.06" pos="1.54" lane=":156_0_0" slope="0.00"/>
        <vehicle id="11" x="378.76" y="-2.00" angle="90.00" type="DEFAULT_VEHTYPE" speed="7.60" pos="30.97" lane="-7.0.00_0" slope="0.00"/>
        <vehicle id="12" x="92.43" y="306.83" angle="359.98" type="DEFAULT_VEHTYPE" speed="8.05" pos="24.38" lane="21.0.00_0" slope="0.00"/>
        <vehicle id="13" x="338.94" y="299.36" angle="0.03" type="DEFAULT_VEHTYPE" speed="6.19" pos="17.17" lane="16.0.00_0" slope="0.00"/>
        <vehicle id="14" x="70.15" y="2.04" angle="270.03" type="DEFAULT_VEHTYPE" speed="2.86" pos="9.32" lane="5.0.00_0" slope="0.00"/>
        <vehicle id="15" x="390.86" y="-0.39" angle="72.08" type="DEFAULT_VEHTYPE" speed="1.73" pos="6.83" lane="14.0.00_0" slope="0.00"/>
        <vehicle id="16" x="391.10" y="323.72" angle="123.67" type="DEFAULT_VEHTYPE" speed="0.00" pos="5.10" lane="-11.0.00_0" slope="0.00"/>
        <vehicle id="2" x="396.36" y="164.29" angle="0.00" type="DEFAULT_VEHTYPE" speed="13.73" pos="154.22" lane="-8.0.00_0" slope="0.00"/>
        <vehicle id="3" x="311.29" y="326.63" angle="90.00" type="DEFAULT_VEHTYPE" speed="13.97" pos="143.14" lane="1.0.00_0" slope="0.00"/>
        <vehicle id="4" x="334.77" y="12.47" angle="180.03" type="DEFAULT_VEHTYPE" speed="5.02" pos="106.98" lane="-19.0.00_0" slope="0.00"/>
        <vehicle id="5" x="396.39" y="50.54" angle="359.89" type="DEFAULT_VEHTYPE" speed="10.51" pos="40.47" lane="-8.0.00_0" slope="0.00"/>
        <vehicle id="6" x="283.38" y="2.00" angle="270.00" type="DEFAULT_VEHTYPE" speed="14.50" pos="42.40" lane="6.0.00_0" slope="0.00"/>
        <vehicle id="7" x="323.26" y="133.45" angle="265.74" type="DEFAULT_VEHTYPE" speed="6.39" pos="2.47" lane="12.0.00_0" slope="0.00"/>
        <vehicle id="8" x="396.40" y="25.57" angle="359.89" type="DEFAULT_VEHTYPE" speed="12.76" pos="15.50" lane="-8.0.00_0" slope="0.00"/>
        <vehicle id="9" x="160.71" y="195.17" angle="90.03" type="DEFAULT_VEHTYPE" speed="10.97" pos="59.23" lane="-4.0.00_0" slope="0.00"/>
    </timestep>
    <timestep time="17.00">
        <vehicle id="0" x="117.95" y="330.66" angle="270.00" type="DEFAULT_VEHTYPE" speed="12.84" pos="27.06" lane="-2.0.00_0" slope="0.00"/>
        <vehicle id="1" x="392.36" y="197.70" angle="180.00" type="DEFAULT_VEHTYPE" speed="12.88" pos="121.06" lane="8.0.00_0" slope="0.00"/>
        <vehicle id="10" x="88.45" y="192.89" angle="180.00" type="DEFAULT_VEHTYPE" speed="14.34" pos="15.88" lane=":156_0_0" slope="0.00"/>
        <vehicle id="11" x="382.26" y="-2.00" angle="90.00" type="DEFAULT_VEHTYPE" speed="3.50" pos="34.47" lane="-7.0.00_0" slope="0.00"/>
        <vehicle id="12" x="92.43" y="313.74" angle="359.98" type="DEFAULT_VEHTYPE" speed="6.91" pos="31.29" lane="21.0.00_0" slope="0.00"/>
        <vehicle id="13" x="338.94" y="308.07" angle="0.03" type="DEFAULT_VEHTYPE" speed="8.71" pos="25.88" lane="16.0.00_0" slope="0.00"/>
        <vehicle id="14" x="65.83" y="2.04" angle="270.03" type="DEFAULT_VEHTYPE" speed="4.32" pos="13.64" lane="5.0.00_0" slope="0.00"/>
        <vehicle id="15" x="393.35" y="1.53" angle="57.14" type="DEFAULT_VEHTYPE" speed="3.15" pos="9.98" lane="14.0.00_0" slope="0.00"/>
        <vehicle id="16" x="391.84" y="322.39" angle="136.57" type="DEFAULT_VEHTYPE" speed="1.52" pos="6.62" lane="-11.0.00_0" slope="0.00"/>
        <vehicle id="17" x="158.09" y="287.51" angle="0.08" type="DEFAULT_VEHTYPE" speed="0.00" pos="5.10" lane="25.0.00_0" slope="0.00"/>
        <vehicle id="2" x="396.36" y="178.27" angle="0.00" type="DEFAULT_VEHTYPE" speed="13.98" pos="168.20" lane="-8.0.00_0" slope="0.00"/>
        <vehicle id="3" x="324.42" y="326.62" angle="90.02" type="DEFAULT_VEHTYPE" speed="13.13" pos="156.27" lane="1.0.00_0" slope="0.00"/>
        <vehicle id="4" x="335.56" y="5.55" angle="172.00" type="DEFAULT_VEHTYPE" speed="6.98" pos="5.67" lane=":60_1_0" slope="0.00"/>
        <vehicle id="5" x="396.39" y="61.93" angle="0.00" type="DEFAULT_VEHTYPE" speed="11.39" pos="51.86" lane="-8.0.00_0" slope="0.00"/>
        <vehicle id="6" x="269.03" y="2.00" angle="270.00" type="DEFAULT_VEHTYPE" speed="14.36" pos="56.75" lane="6.0.00_0" slope="0.00"/>
        <vehicle id="7" x="315.12" y="133.45" angle="270.01" type="DEFAULT_VEHTYPE" speed="8.14" pos="10.61" lane="12.0.00_0" slope="0.00"/>
        <vehicle id="8" x="396.40" y="37.70" angle="0.00" type="DEFAULT_VEHTYPE" speed="12.13" pos="27.63" lane="-8.0.00_0" slope="0.00"/>
        <vehicle id="9" x="171.39" y="195.17" angle="90.03" type="DEFAULT_VEHTYPE" speed="10.68" pos="69.91" lane="-4.0.00_0" slope="0.00"/>
    </timestep>
    <timestep time="18.00">
        <vehicle id="0" x="103.28" y="330.66" angle="270.00" type="DEFAULT_VEHTYPE" speed="14.67" pos="41.73" lane="-2.0.00_0" slope="0.00"/>
        <vehicle id="1" x="392.36" y="185.00" angle="180.00" type="DEFAULT_VEHTYPE" speed="12.71" pos="133.76" lane="8.0.00_0" slope="0.00"/>
        <vehicle id="10" x="88.45" y="178.37" angle="179.99" type="DEFAULT_VEHTYPE" speed="14.52" pos="8.40" lane="-23.0.00_0" slope="0.00"/>
        <vehicle id="11" x="385.51" y="-1.96" angle="89.55" type="DEFAULT_VEHTYPE" speed="3.25" pos="1.20" lane="14.0.00_0" slope="0.00"/>
        <vehicle id="12" x="93.06" y="321.62" angle="7.22" type="DEFAULT_VEHTYPE" speed="7.94" pos="3.74" lane=":77_2_0" slope="0.00"/>
        <vehicle id="13" x="338.95" y="314.22" angle="0.03" type="DEFAULT_VEHTYPE" speed="6.16" pos="32.03" lane="16.0.00_0" slope="0.00"/>
        <vehicle id="14" x="58.96" y="2.04" angle="270.03" type="DEFAULT_VEHTYPE" speed="6.87" pos="20.51" lane="5.0.00_0" slope="0.00"/>
        <vehicle id="15" x="395.82" y="5.62" angle="31.69" type="DEFAULT_VEHTYPE" speed="4.83" pos="14.81" lane="14.0.00_0" slope="0.00"/>
        <vehicle id="16" x="392.44" y="318.90" angle="164.84" type="DEFAULT_VEHTYPE" speed="3.58" pos="10.20" lane="-11.0.00_0" slope="0.00"/>
        <vehicle id="17" x="158.09" y="289.45" angle="0.08" type="DEFAULT_VEHTYPE" speed="1.94" pos="7.04" lane="25.0.00_0" slope="0.00"/>
        <vehicle id="18" x="334.92" y="254.48" angle="180.03" type="DEFAULT_VEHTYPE" speed="0.00" pos="5.10" lane="-17.0.00_0" slope="0.00"/>
        <vehicle id="2" x="396.36" y="191.56" angle="0.00" type="DEFAULT_VEHTYPE" speed="13.30" pos="181.49" lane="-8.0.00_0" slope="0.00"/>
        <vehicle id="3" x="332.59" y="324.45" angle="112.14" type="DEFAULT_VEHTYPE" speed="8.63" pos="7.37" lane=":43_4_0" slope="0.00"/>
        <vehicle id="4" x="341.47" y="-0.80" angle="126.58" type="DEFAULT_VEHTYPE" speed="8.96" pos="14.63" lane=":60_1_0" slope="0.00"/>
        <vehicle id="5" x="396.39" y="73.10" angle="0.00" type="DEFAULT_VEHTYPE" speed="11.17" pos="63.03" lane="-8.0.00_0" slope="0.00"/>
        <vehicle id="6" x="254.64" y="2.00" angle="270.00" type="DEFAULT_VEHTYPE" speed="14.39" pos="71.14" lane="6.0.00_0" slope="0.00"/>
        <vehicle id="7" x="305.07" y="133.45" angle="270.01" type="DEFAULT_VEHTYPE" speed="10.05" pos="20.66" lane="12.0.00_0" slope="0.00"/>
        <vehicle id="8" x="396.39" y="49.72" angle="359.89" type="DEFAULT_VEHTYPE" speed="12.02" pos="39.65" lane="-8.0.00_0" slope="0.00"/>
        <vehicle id="9" x="183.29" y="195.16" angle="90.03" type="DEFAULT_VEHTYPE" speed="11.90" pos="81.82" lane="-4.0.00_0" slope="0.00"/>
    </timestep>
    <timestep time="19.00">
        <vehicle id="0" x="89.74" y="330.65" angle="269.98" type="DEFAULT_VEHTYPE" speed="13.54" pos="13.01" lane=":77_0_0" slope="0.00"/>
        <vehicle id="1" x="392.36" y="172.20" angle="180.00" type="DEFAULT_VEHTYPE" speed="12.79" pos="146.56" lane="8.0.00_0" slope="0.00"/>
        <vehicle id="10" x="88.46" y="163.24" angle="179.99" type="DEFAULT_VEHTYPE" speed="15.13" pos="23.53" lane="-23.0.00_0" slope="0.00"/>
        <vehicle id="11" x="389.62" y="-0.96" angle="77.89" type="DEFAULT_VEHTYPE" speed="4.26" pos="5.46" lane="14.0.00_0" slope="0.00"/>
        <vehicle id="12" x="99.44" y="326.26" angle="67.02" type="DEFAULT_VEHTYPE" speed="8.29" pos="12.03" lane=":77_2_0" slope="0.00"/>
        <vehicle id="13" x="340.09" y="322.52" angle="13.37" type="DEFAULT_VEHTYPE" speed="8.50" pos="4.92" lane=":43_2_0" slope="0.00"/>
        <vehicle id="14" x="50.03" y="2.05" angle="270.03" type="DEFAULT_VEHTYPE" speed="8.93" pos="29.44" lane="5.0.00_0" slope="0.00"/>
        <vehicle id="15" x="396.41" y="11.94" angle="2.44" type="DEFAULT_VEHTYPE" speed="6.49" pos="1.87" lane="-8.0.00_0" slope="0.00"/>
        <vehicle id="16" x="392.43" y="313.47" angle="180.08" type="DEFAULT_VEHTYPE" speed="5.53" pos="5.29" lane="8.0.00_0" slope="0.00"/>
        <vehicle id="17" x="158.10" y="293.69" angle="0.08" type="DEFAULT_VEHTYPE" speed="4.24" pos="11.28" lane="25.0.00_0" slope="0.00"/>
        <vehicle id="18" x="334.92" y="253.16" angle="180.03" type="DEFAULT_VEHTYPE" speed="1.32" pos="6.42" lane="-17.0.00_0" slope="0.00"/>
        <vehicle id="19" x="378.88" y="2.00" angle="270.00" type="DEFAULT_VEHTYPE" speed="0.00" pos="5.10" lane="7.0.00_0" slope="0.00"/>
        <vehicle id="2" x="396.35" y="205.04" angle="359.93" type="DEFAULT_VEHTYPE" speed="13.48" pos="194.97" lane="-8.0.00_0" slope="0.00"/>