<?xml version="1.0" encoding="UTF-8"?>

<!-- generated on Wed Aug 14 12:02:45 2019 by Eclipse SUMO Version 1.2.0
<configuration xmlns:xsi="http://www.w3.org/2001/XMLSchema-instance" xsi:noNamespaceSchemaLocation="http://sumo.dlr.de/xsd/sumoConfiguration.xsd">

    <input>
        <net-file value="Town01.net.xml"/>
        <route-files value="trips.trips.xml"/>
    </input>

    <output>
        <netstate-dump value="test.log"/>
        <fcd-output value="Town02_Car100.log"/>
    </output>

    <time>
        <begin value="0"/>
        <end value="10000"/>
    </time>

</configuration>
-->

<fcd-export xmlns:xsi="http://www.w3.org/2001/XMLSchema-instance" xsi:noNamespaceSchemaLocation="http://sumo.dlr.de/xsd/fcd_file.xsd">
    <timestep time="0.00">
        <vehicle id="0" x="15.32" y="-1.93" angle="90.03" type="DEFAULT_VEHTYPE" speed="0.00" pos="5.10" lane="-5.0.00_0" slope="0.00"/>
    </timestep>
    <timestep time="1.00">
        <vehicle id="0" x="17.53" y="-1.93" angle="90.03" type="DEFAULT_VEHTYPE" speed="2.21" pos="7.31" lane="-5.0.00_0" slope="0.00"/>
        <vehicle id="1" x="338.85" y="148.06" angle="0.03" type="DEFAULT_VEHTYPE" speed="0.00" pos="5.10" lane="18.0.00_0" slope="0.00"/>
    </timestep>
    <timestep time="2.00">
        <vehicle id="0" x="22.03" y="-1.94" angle="90.03" type="DEFAULT_VEHTYPE" speed="4.51" pos="11.81" lane="-5.0.00_0" slope="0.00"/>
        <vehicle id="1" x="338.85" y="150.18" angle="0.03" type="DEFAULT_VEHTYPE" speed="2.12" pos="7.22" lane="18.0.00_0" slope="0.00"/>
        <vehicle id="2" x="172.33" y="269.12" angle="89.99" type="DEFAULT_VEHTYPE" speed="0.00" pos="5.10" lane="-10.0.00_0" slope="0.00"/>
    </timestep>
    <timestep time="3.00">
        <vehicle id="0" x="28.94" y="-1.94" angle="90.03" type="DEFAULT_VEHTYPE" speed="6.90" pos="18.72" lane="-5.0.00_0" slope="0.00"/>
        <vehicle id="1" x="338.86" y="154.73" angle="0.03" type="DEFAULT_VEHTYPE" speed="4.55" pos="11.77" lane="18.0.00_0" slope="0.00"/>
        <vehicle id="2" x="174.21" y="269.12" angle="89.99" type="DEFAULT_VEHTYPE" speed="1.88" pos="6.98" lane="-10.0.00_0" slope="0.00"/>
        <vehicle id="3" x="338.89" y="213.13" angle="0.03" type="DEFAULT_VEHTYPE" speed="0.00" pos="5.10" lane="17.0.00_0" slope="0.00"/>
    </timestep>
    <timestep time="4.00">
        <vehicle id="0" x="37.53" y="-1.95" angle="90.03" type="DEFAULT_VEHTYPE" speed="8.59" pos="27.31" lane="-5.0.00_0" slope="0.00"/>
        <vehicle id="1" x="338.86" y="161.10" angle="0.03" type="DEFAULT_VEHTYPE" speed="6.38" pos="18.15" lane="18.0.00_0" slope="0.00"/>
        <vehicle id="2" x="178.03" y="269.12" angle="89.99" type="DEFAULT_VEHTYPE" speed="3.82" pos="10.80" lane="-10.0.00_0" slope="0.00"/>
        <vehicle id="3" x="338.89" y="215.62" angle="0.03" type="DEFAULT_VEHTYPE" speed="2.49" pos="7.59" lane="17.0.00_0" slope="0.00"/>
        <vehicle id="4" x="320.60" y="199.09" angle="270.03" type="DEFAULT_VEHTYPE" speed="0.00" pos="5.10" lane="4.0.00_0" slope="0.00"/>
    </timestep>
    <timestep time="5.00">
        <vehicle id="0" x="47.83" y="-1.95" angle="90.03" type="DEFAULT_VEHTYPE" speed="10.31" pos="37.61" lane="-5.0.00_0" slope="0.00"/>
        <vehicle id="1" x="338.86" y="169.59" angle="0.03" type="DEFAULT_VEHTYPE" speed="8.49" pos="26.64" lane="18.0.00_0" slope="0.00"/>
        <vehicle id="2" x="184.28" y="269.12" angle="89.99" type="DEFAULT_VEHTYPE" speed="6.25" pos="17.05" lane="-10.0.00_0" slope="0.00"/>
        <vehicle id="3" x="338.90" y="219.98" angle="0.03" type="DEFAULT_VEHTYPE" speed="4.36" pos="11.95" lane="17.0.00_0" slope="0.00"/>
        <vehicle id="4" x="318.28" y="199.09" angle="270.03" type="DEFAULT_VEHTYPE" speed="2.32" pos="7.42" lane="4.0.00_0" slope="0.00"/>
        <vehicle id="5" x="320.63" y="133.45" angle="270.01" type="DEFAULT_VEHTYPE" speed="0.00" pos="5.10" lane="12.0.00_0" slope="0.00"/>
    </timestep>
    <timestep time="6.00">
        <vehicle id="0" x="59.88" y="-1.96" angle="90.03" type="DEFAULT_VEHTYPE" speed="12.05" pos="49.66" lane="-5.0.00_0" slope="0.00"/>
        <vehicle id="1" x="338.87" y="180.55" angle="0.03" type="DEFAULT_VEHTYPE" speed="10.96" pos="37.60" lane="18.0.00_0" slope="0.00"/>
        <vehicle id="2" x="192.32" y="269.12" angle="89.99" type="DEFAULT_VEHTYPE" speed="8.04" pos="25.09" lane="-10.0.00_0" slope="0.00"/>
        <vehicle id="3" x="338.90" y="226.88" angle="0.03" type="DEFAULT_VEHTYPE" speed="6.90" pos="18.85" lane="17.0.00_0" slope="0.00"/>
        <vehicle id="4" x="313.49" y="199.10" angle="270.03" type="DEFAULT_VEHTYPE" speed="4.78" pos="12.21" lane="4.0.00_0" slope="0.00"/>
        <vehicle id="5" x="318.88" y="133.45" angle="270.01" type="DEFAULT_VEHTYPE" speed="1.75" pos="6.85" lane="12.0.00_0" slope="0.00"/>
        <vehicle id="6" x="334.95" y="312.72" angle="180.03" type="DEFAULT_VEHTYPE" speed="0.00" pos="5.10" lane="-16.0.00_0" slope="0.00"/>
    </timestep>
    <timestep time="7.00">
        <vehicle id="0" x="72.89" y="-1.97" angle="90.03" type="DEFAULT_VEHTYPE" speed="13.01" pos="62.67" lane="-5.0.00_0" slope="0.00"/>
        <vehicle id="1" x="338.88" y="193.49" angle="0.05" type="DEFAULT_VEHTYPE" speed="12.94" pos="8.55" lane=":139_2_0" slope="0.00"/>
        <vehicle id="2" x="202.17" y="269.12" angle="89.99" type="DEFAULT_VEHTYPE" speed="9.85" pos="34.93" lane="-10.0.00_0" slope="0.00"/>
        <vehicle id="3" x="338.91" y="236.00" angle="0.03" type="DEFAULT_VEHTYPE" speed="9.12" pos="27.97" lane="17.0.00_0" slope="0.00"/>
        <vehicle id="4" x="306.98" y="199.10" angle="270.03" type="DEFAULT_VEHTYPE" speed="6.51" pos="18.72" lane="4.0.00_0" slope="0.00"/>
        <vehicle id="5" x="315.22" y="133.45" angle="270.01" type="DEFAULT_VEHTYPE" speed="3.66" pos="10.51" lane="12.0.00_0" slope="0.00"/>
        <vehicle id="6" x="334.95" y="310.93" angle="180.03" type="DEFAULT_VEHTYPE" speed="1.79" pos="6.89" lane="-16.0.00_0" slope="0.00"/>
        <vehicle id="7" x="106.58" y="195.20" angle="90.03" type="DEFAULT_VEHTYPE" speed="0.00" pos="5.10" lane="-4.0.00_0" slope="0.00"/>
    </timestep>
    <timestep time="8.00">
        <vehicle id="0" x="81.44" y="-1.68" angle="86.71" type="DEFAULT_VEHTYPE" speed="8.57" pos="1.99" lane=":195_5_0" slope="0.00"/>
        <vehicle id="1" x="338.89" y="205.61" angle="0.05" type="DEFAULT_VEHTYPE" speed="12.12" pos="20.67" lane=":139_2_0" slope="0.00"/>
        <vehicle id="2" x="213.91" y="269.13" angle="89.99" type="DEFAULT_VEHTYPE" speed="11.74" pos="46.68" lane="-10.0.00_0" slope="0.00"/>
        <vehicle id="3" x="338.91" y="247.56" angle="0.03" type="DEFAULT_VEHTYPE" speed="11.55" pos="39.53" lane="17.0.00_0" slope="0.00"/>
        <vehicle id="4" x="298.68" y="199.10" angle="270.03" type="DEFAULT_VEHTYPE" speed="8.30" pos="27.02" lane="4.0.00_0" slope="0.00"/>
        <vehicle id="5" x="309.48" y="133.45" angle="270.01" type="DEFAULT_VEHTYPE" speed="5.75" pos="16.25" lane="12.0.00_0" slope="0.00"/>
        <vehicle id="6" x="334.94" y="307.04" angle="180.03" type="DEFAULT_VEHTYPE" speed="3.90" pos="10.78" lane="-16.0.00_0" slope="0.00"/>
        <vehicle id="7" x="108.71" y="195.20" angle="90.03" type="DEFAULT_VEHTYPE" speed="2.13" pos="7.23" lane="-4.0.00_0" slope="0.00"/>
        <vehicle id="8" x="391.10" y="323.72" angle="123.67" type="DEFAULT_VEHTYPE" speed="0.00" pos="5.10" lane="-11.0.00_0" slope="0.00"/>
    </timestep>
    <timestep time="9.00">
        <vehicle id="0" x="86.35" y="-0.41" angle="75.30" type="DEFAULT_VEHTYPE" speed="5.15" pos="7.14" lane=":195_5_0" slope="0.00"/>
        <vehicle id="1" x="338.90" y="217.52" angle="0.03" type="DEFAULT_VEHTYPE" speed="11.92" pos="9.49" lane="17.0.00_0" slope="0.00"/>
        <vehicle id="2" x="227.85" y="269.13" angle="89.99" type="DEFAULT_VEHTYPE" speed="13.93" pos="60.61" lane="-10.0.00_0" slope="0.00"/>
        <vehicle id="3" x="338.92" y="261.35" angle="0.03" type="DEFAULT_VEHTYPE" speed="13.80" pos="1.77" lane=":111_2_0" slope="0.00"/>
        <vehicle id="4" x="288.11" y="199.11" angle="270.03" type="DEFAULT_VEHTYPE" speed="10.57" pos="37.59" lane="4.0.00_0" slope="0.00"/>
        <vehicle id="5" x="302.15" y="133.45" angle="270.01" type="DEFAULT_VEHTYPE" speed="7.33" pos="23.58" lane="12.0.00_0" slope="0.00"/>
        <vehicle id="6" x="334.94" y="301.71" angle="180.03" type="DEFAULT_VEHTYPE" speed="5.32" pos="16.11" lane="-16.0.00_0" slope="0.00"/>
        <vehicle id="7" x="112.60" y="195.19" angle="90.03" type="DEFAULT_VEHTYPE" speed="3.89" pos="11.12" lane="-4.0.00_0" slope="0.00"/>
        <vehicle id="8" x="392.15" y="321.51" angle="144.07" type="DEFAULT_VEHTYPE" speed="2.47" pos="7.57" lane="-11.0.00_0" slope="0.00"/>
        <vehicle id="9" x="395.62" y="323.75" angle="350.47" type="DEFAULT_VEHTYPE" speed="0.00" pos="5.10" lane="11.0.00_0" slope="0.00"/>
    </timestep>
    <timestep time="10.00">
        <vehicle id="0" x="91.25" y="4.78" angle="36.10" type="DEFAULT_VEHTYPE" speed="7.36" pos="6.51" lane=":195_6_0" slope="0.00"/>
        <vehicle id="1" x="338.90" y="229.58" angle="0.03" type="DEFAULT_VEHTYPE" speed="12.06" pos="21.55" lane="17.0.00_0" slope="0.00"/>
        <vehicle id="10" x="74.34" y="330.65" angle="269.98" type="DEFAULT_VEHTYPE" speed="0.00" pos="5.10" lane="-3.0.00_0" slope="0.00"/>
        <vehicle id="2" x="240.60" y="269.13" angle="89.99" type="DEFAULT_VEHTYPE" speed="12.75" pos="73.36" lane="-10.0.00_0" slope="0.00"/>
        <vehicle id="3" x="338.93" y="275.81" angle="0.03" type="DEFAULT_VEHTYPE" speed="14.47" pos="16.24" lane=":111_2_0" slope="0.00"/>
        <vehicle id="4" x="275.32" y="199.11" angle="270.03" type="DEFAULT_VEHTYPE" speed="12.79" pos="50.38" lane="4.0.00_0" slope="0.00"/>
        <vehicle id="5" x="293.22" y="133.45" angle="270.01" type="DEFAULT_VEHTYPE" speed="8.92" pos="32.51" lane="12.0.00_0" slope="0.00"/>
        <vehicle id="6" x="334.94" y="294.09" angle="180.03" type="DEFAULT_VEHTYPE" speed="7.62" pos="23.73" lane="-16.0.00_0" slope="0.00"/>
        <vehicle id="7" x="118.82" y="195.19" angle="90.03" type="DEFAULT_VEHTYPE" speed="6.22" pos="17.34" lane="-4.0.00_0" slope="0.00"/>
        <vehicle id="8" x="392.44" y="317.65" angle="172.51" type="DEFAULT_VEHTYPE" speed="3.99" pos="1.11" lane="8.0.00_0" slope="0.00"/>
        <vehicle id="9" x="394.38" y="326.01" angle="337.67" type="DEFAULT_VEHTYPE" speed="2.60" pos="7.70" lane="11.0.00_0" slope="0.00"/>
    </timestep>
    <timestep time="11.00">
        <vehicle id="0" x="92.48" y="14.55" angle="2.79" type="DEFAULT_VEHTYPE" speed="9.94" pos="3.24" lane="24.0.00_0" slope="0.00"/>
        <vehicle id="1" x="338.91" y="242.57" angle="0.03" type="DEFAULT_VEHTYPE" speed="12.99" pos="34.54" lane="17.0.00_0" slope="0.00"/>
        <vehicle id="10" x="72.45" y="330.65" angle="269.98" type="DEFAULT_VEHTYPE" speed="1.89" pos="6.99" lane="-3.0.00_0" slope="0.00"/>
        <vehicle id="11" x="320.59" y="330.62" angle="270.00" type="DEFAULT_VEHTYPE" speed="0.00" pos="5.10" lane="-1.0.00_0" slope="0.00"/>
        <vehicle id="2" x="254.16" y="269.13" angle="89.99" type="DEFAULT_VEHTYPE" speed="13.56" pos="86.92" lane="-10.0.00_0" slope="0.00"/>
        <vehicle id="3" x="338.93" y="290.20" angle="0.03" type="DEFAULT_VEHTYPE" speed="14.39" pos="8.01" lane="16.0.00_0" slope="0.00"/>
        <vehicle id="4" x="262.12" y="199.12" angle="270.03" type="DEFAULT_VEHTYPE" speed="13.20" pos="63.58" lane="4.0.00_0" slope="0.00"/>
        <vehicle id="5" x="282.21" y="133.45" angle="270.01" type="DEFAULT_VEHTYPE" speed="11.01" pos="43.52" lane="12.0.00_0" slope="0.00"/>
        <vehicle id="6" x="334.93" y="285.03" angle="180.03" type="DEFAULT_VEHTYPE" speed="9.07" pos="32.79" lane="-16.0.00_0" slope="0.00"/>
        <vehicle id="7" x="127.62" y="195.19" angle="90.03" type="DEFAULT_VEHTYPE" speed="8.80" pos="26.14" lane="-4.0.00_0" slope="0.00"/>
        <vehicle id="8" x="392.43" y="311.24" angle="180.11" type="DEFAULT_VEHTYPE" speed="6.40" pos="7.52" lane="8.0.00_0" slope="0.00"/>
        <vehicle id="9" x="390.87" y="329.20" angle="312.65" type="DEFAULT_VEHTYPE" speed="4.79" pos="12.49" lane="11.0.00_0" slope="0.00"/>
    </timestep>
    <timestep time="12.00">
        <vehicle id="0" x="92.48" y="26.44" angle="359.99" type="DEFAULT_VEHTYPE" speed="11.90" pos="15.13" lane="24.0.00_0" slope="0.00"/>
        <vehicle id="1" x="338.92" y="255.25" angle="0.03" type="DEFAULT_VEHTYPE" speed="12.68" pos="47.22" lane="17.0.00_0" slope="0.00"/>
        <vehicle id="10" x="68.22" y="330.65" angle="269.98" type="DEFAULT_VEHTYPE" speed="4.23" pos="11.22" lane="-3.0.00_0" slope="0.00"/>
        <vehicle id="11" x="318.86" y="330.63" angle="270.06" type="DEFAULT_VEHTYPE" speed="1.73" pos="6.83" lane="-1.0.00_0" slope="0.00"/>
        <vehicle id="12" x="15.32" y="-1.93" angle="90.03" type="DEFAULT_VEHTYPE" speed="0.00" pos="5.10" lane="-5.0.00_0" slope="0.00"/>
        <vehicle id="2" x="267.39" y="269.13" angle="89.99" type="DEFAULT_VEHTYPE" speed="13.23" pos="100.15" lane="-10.0.00_0" slope="0.00"/>
        <vehicle id="3" x="338.94" y="303.25" angle="0.03" type="DEFAULT_VEHTYPE" speed="13.05" pos="21.06" lane="16.0.00_0" slope="0.00"/>
        <vehicle id="4" x="248.22" y="199.13" angle="270.03" type="DEFAULT_VEHTYPE" speed="13.91" pos="77.48" lane="4.0.00_0" slope="0.00"/>
        <vehicle id="5" x="271.53" y="133.45" angle="270.01" type="DEFAULT_VEHTYPE" speed="10.68" pos="54.20" lane="12.0.00_0" slope="0.00"/>
        <vehicle id="6" x="334.93" y="273.95" angle="180.03" type="DEFAULT_VEHTYPE" speed="11.08" pos="8.25" lane=":111_1_0" slope="0.00"/>
        <vehicle id="7" x="138.24" y="195.18" angle="90.03" type="DEFAULT_VEHTYPE" speed="10.62" pos="36.76" lane="-4.0.00_0" slope="0.00"/>
        <vehicle id="8" x="392.42" y="303.38" angle="180.11" type="DEFAULT_VEHTYPE" speed="7.86" pos="15.38" lane="8.0.00_0" slope="0.00"/>
        <vehicle id="9" x="384.64" y="330.59" angle="279.06" type="DEFAULT_VEHTYPE" speed="6.47" pos="0.01" lane="-0.0.00_0" slope="0.00"/>
    </timestep>
    <timestep time="13.00">
        <vehicle id="0" x="92.47" y="40.82" angle="359.99" type="DEFAULT_VEHTYPE" speed="14.38" pos="29.51" lane="24.0.00_0" slope="0.00"/>
        <vehicle id="1" x="338.92" y="268.27" angle="0.03" type="DEFAULT_VEHTYPE" speed="13.03" pos="8.70" lane=":111_2_0" slope="0.00"/>
        <vehicle id="10" x="62.66" y="330.65" angle="269.98" type="DEFAULT_VEHTYPE" speed="5.56" pos="16.78" lane="-3.0.00_0" slope="0.00"/>
        <vehicle id="11" x="315.63" y="330.63" angle="270.11" type="DEFAULT_VEHTYPE" speed="3.23" pos="10.06" lane="-1.0.00_0" slope="0.00"/>
        <vehicle id="12" x="16.74" y="-1.93" angle="90.03" type="DEFAULT_VEHTYPE" speed="1.42" pos="6.52" lane="-5.0.00_0" slope="0.00"/>
        <vehicle id="13" x="392.43" y="313.66" angle="180.07" type="DEFAULT_VEHTYPE" speed="0.00" pos="5.10" lane="8.0.00_0" slope="0.00"/>
        <vehicle id="2" x="281.03" y="269.13" angle="89.99" type="DEFAULT_VEHTYPE" speed="13.64" pos="113.79" lane="-10.0.00_0" slope="0.00"/>
        <vehicle id="3" x="338.95" y="311.80" angle="0.03" type="DEFAULT_VEHTYPE" speed="8.55" pos="29.61" lane="16.0.00_0" slope="0.00"/>
        <vehicle id="4" x="234.00" y="199.13" angle="270.03" type="DEFAULT_VEHTYPE" speed="14.22" pos="91.70" lane="4.0.00_0" slope="0.00"/>
        <vehicle id="5" x="260.50" y="133.46" angle="270.01" type="DEFAULT_VEHTYPE" speed="11.03" pos="65.23" lane="12.0.00_0" slope="0.00"/>
        <vehicle id="6" x="334.92" y="260.53" angle="180.03" type="DEFAULT_VEHTYPE" speed="13.42" pos="21.67" lane=":111_1_0" slope="0.00"/>
        <vehicle id="7" x="150.15" y="195.18" angle="90.03" type="DEFAULT_VEHTYPE" speed="11.91" pos="48.67" lane="-4.0.00_0" slope="0.00"/>
        <vehicle id="8" x="392.41" y="293.09" angle="180.06" type="DEFAULT_VEHTYPE" speed="10.29" pos="25.67" lane="8.0.00_0" slope="0.00"/>
        <vehicle id="9" x="376.58" y="330.59" angle="270.03" type="DEFAULT_VEHTYPE" speed="8.05" pos="8.07" lane="-0.0.00_0" slope="0.00"/>
    </timestep>
    <timestep time="14.00">
        <vehicle id="0" x="92.47" y="54.32" angle="359.99" type="DEFAULT_VEHTYPE" speed="13.50" pos="43.02" lane="24.0.00_0" slope="0.00"/>
        <vehicle id="1" x="338.93" y="281.26" angle="0.03" type="DEFAULT_VEHTYPE" speed="12.99" pos="21.69" lane=":111_2_0" slope="0.00"/>
        <vehicle id="10" x="55.71" y="330.64" angle="269.98" type="DEFAULT_VEHTYPE" speed="6.95" pos="23.73" lane="-3.0.00_0" slope="0.00"/>
        <vehicle id="11" x="309.81" y="330.63" angle="270.00" type="DEFAULT_VEHTYPE" speed="5.82" pos="15.88" lane="-1.0.00_0" slope="0.00"/>
        <vehicle id="12" x="19.51" y="-1.94" angle="90.03" type="DEFAULT_VEHTYPE" speed="2.77" pos="9.29" lane="-5.0.00_0" slope="0.00"/>
        <vehicle id="13" x="392.43" y="311.87" angle="180.11" type="DEFAULT_VEHTYPE" speed="1.79" pos="6.89" lane="8.0.00_0" slope="0.00"/>
        <vehicle id="14" x="389.29" y="-1.11" angle="79.65" type="DEFAULT_VEHTYPE" speed="0.00" pos="5.10" lane="14.0.00_0" slope="0.00"/>
        <vehicle id="2" x="294.63" y="269.14" angle="89.99" type="DEFAULT_VEHTYPE" speed="13.60" pos="127.40" lane="-10.0.00_0" slope="0.00"/>
        <vehicle id="3" x="338.95" y="316.75" angle="0.03" type="DEFAULT_VEHTYPE" speed="4.94" pos="34.56" lane="16.0.00_0" slope="0.00"/>
        <vehicle id="4" x="220.49" y="199.14" angle="270.03" type="DEFAULT_VEHTYPE" speed="13.51" pos="105.21" lane="4.0.00_0" slope="0.00"/>
        <vehicle id="5" x="249.39" y="133.46" angle="270.01" type="DEFAULT_VEHTYPE" speed="11.11" pos="76.34" lane="12.0.00_0" slope="0.00"/>
        <vehicle id="6" x="334.91" y="247.16" angle="180.03" type="DEFAULT_VEHTYPE" speed="13.37" pos="12.42" lane="-17.0.00_0" slope="0.00"/>
        <vehicle id="7" x="161.52" y="195.17" angle="90.03" type="DEFAULT_VEHTYPE" speed="11.38" pos="60.04" lane="-4.0.00_0" slope="0.00"/>
        <vehicle id="8" x="392.40" y="280.68" angle="180.04" type="DEFAULT_VEHTYPE" speed="12.41" pos="38.08" lane="8.0.00_0" slope="0.00"/>
        <vehicle id="9" x="366.15" y="330.60" angle="270.03" type="DEFAULT_VEHTYPE" speed="10.43" pos="18.50" lane="-0.0.00_0" slope="0.00"/>
    </timestep>
    <timestep time="15.00">
        <vehicle id="0" x="92.47" y="68.83" angle="359.99" type="DEFAULT_VEHTYPE" speed="14.51" pos="57.53" lane="24.0.00_0" slope="0.00"/>
        <vehicle id="1" x="338.94" y="293.42" angle="0.03" type="DEFAULT_VEHTYPE" speed="12.16" pos="11.23" lane="16.0.00_0" slope="0.00"/>
        <vehicle id="10" x="46.27" y="330.64" angle="269.98" type="DEFAULT_VEHTYPE" speed="9.44" pos="33.17" lane="-3.0.00_0" slope="0.00"/>
        <vehicle id="11" x="301.59" y="330.63" angle="270.00" type="DEFAULT_VEHTYPE" speed="8.22" pos="24.10" lane="-1.0.00_0" slope="0.00"/>
        <vehicle id="12" x="24.59" y="-1.94" angle="90.03" type="DEFAULT_VEHTYPE" speed="5.08" pos="14.37" lane="-5.0.00_0" slope="0.00"/>
        <vehicle id="13" x="392.43" y="308.17" angle="180.02" type="DEFAULT_VEHTYPE" speed="3.70" pos="10.59" lane="8.0.00_0" slope="0.00"/>
        <vehicle id="14" x="390.59" y="-0.52" angle="73.35" type="DEFAULT_VEHTYPE" speed="1.42" pos="6.52" lane="14.0.00_0" slope="0.00"/>
        <vehicle id="15" x="320.63" y="133.45" angle="270.01" type="DEFAULT_VEHTYPE" speed="0.00" pos="5.10" lane="12.0.00_0" slope="0.00"/>
        <vehicle id="2" x="308.09" y="269.14" angle="89.99" type="DEFAULT_VEHTYPE" speed="13.46" pos="140.85" lane="-10.0.00_0" slope="0.00"/>
        <vehicle id="3" x="340.88" y="323.77" angle="20.60" type="DEFAULT_VEHTYPE" speed="7.46" pos="6.40" lane=":43_2_0" slope="0.00"/>
        <vehicle id="4" x="207.21" y="199.15" angle="270.03" type="DEFAULT_VEHTYPE" speed="13.28" pos="118.49" lane="4.0.00_0" slope="0.00"/>
        <vehicle id="5" x="238.48" y="133.46" angle="270.01" type="DEFAULT_VEHTYPE" speed="10.91" pos="87.25" lane="12.0.00_0" slope="0.00"/>
        <vehicle id="6" x="334.91" y="233.92" angle="180.03" type="DEFAULT_VEHTYPE" speed="13.24" pos="25.66" lane="-17.0.00_0" slope="0.00"/>
        <vehicle id="7" x="172.60" y="195.17" angle="90.03" type="DEFAULT_VEHTYPE" speed="11.08" pos="71.13" lane="-4.0.00_0" slope="0.00"/>
        <vehicle id="8" x="392.38" y="267.69" angle="180.07" type="DEFAULT_VEHTYPE" speed="12.98" pos="51.07" lane="8.0.00_0" slope="0.00"/>
        <vehicle id="9" x="355.24" y="330.61" angle="270.03" type="DEFAULT_VEHTYPE" speed="10.91" pos="29.41" lane="-0.0.00_0" slope="0.00"/>
    </timestep>
    <timestep time="16.00">
        <vehicle id="0" x="92.47" y="82.39" angle="359.99" type="DEFAULT_VEHTYPE" speed="13.56" pos="71.09" lane="24.0.00_0" slope="0.00"/>
        <vehicle id="1" x="338.94" y="305.10" angle="0.03" type="DEFAULT_VEHTYPE" speed="11.68" pos="22.91" lane="16.0.00_0" slope="0.00"/>
        <vehicle id="10" x="34.30" y="330.64" angle="269.98" type="DEFAULT_VEHTYPE" speed="11.98" pos="45.14" lane="-3.0.00_0" slope="0.00"/>
        <vehicle id="11" x="291.08" y="330.64" angle="270.00" type="DEFAULT_VEHTYPE" speed="10.51" pos="34.61" lane="-1.0.00_0" slope="0.00"/>
        <vehicle id="12" x="31.57" y="-1.94" angle="90.03" type="DEFAULT_VEHTYPE" speed="6.98" pos="21.35" lane="-5.0.00_0" slope="0.00"/>
        <vehicle id="13" x="392.42" y="302.02" angle="180.11" type="DEFAULT_VEHTYPE" speed="6.15" pos="16.74" lane="8.0.00_0" slope="0.00"/>
        <vehicle id="14" x="393.10" y="1.28" angle="58.60" type="DEFAULT_VEHTYPE" speed="3.10" pos="9.63" lane="14.0.00_0" slope="0.00"/>
        <vehicle id="15" x="318.65" y="133.45" angle="270.01" type="DEFAULT_VEHTYPE" speed="1.98" pos="7.08" lane="12.0.00_0" slope="0.00"/>
        <vehicle id="2" x="318.32" y="269.14" angle="89.99" type="DEFAULT_VEHTYPE" speed="10.23" pos="151.08" lane="-10.0.00_0" slope="0.00"/>
        <vehicle id="3" x="348.77" y="326.61" angle="81.36" type="DEFAULT_VEHTYPE" speed="8.71" pos="0.48" lane="0.0.00_0" slope="0.00"/>
        <vehicle id="4" x="194.04" y="199.15" angle="270.03" type="DEFAULT_VEHTYPE" speed="13.17" pos="131.66" lane="4.0.00_0" slope="0.00"/>
        <vehicle id="5" x="227.62" y="133.46" angle="270.01" type="DEFAULT_VEHTYPE" speed="10.87" pos="98.11" lane="12.0.00_0" slope="0.00"/>
        <vehicle id="6" x="334.90" y="220.11" angle="180.03" type="DEFAULT_VEHTYPE" speed="13.81" pos="39.47" lane="-17.0.00_0" slope="0.00"/>
        <vehicle id="7" x="184.91" y="195.16" angle="90.03" type="DEFAULT_VEHTYPE" speed="12.31" pos="83.43" lane="-4.0.00_0" slope="0.00"/>
        <vehicle id="8" x="392.36" y="255.68" angle="180.11" type="DEFAULT_VEHTYPE" speed="12.02" pos="63.08" lane="8.0.00_0" slope="0.00"/>
        <vehicle id="9" x="343.69" y="330.61" angle="270.03" type="DEFAULT_VEHTYPE" speed="11.55" pos="4.60" lane=":43_0_0" slope="0.00"/>
    </timestep>
    <timestep time="17.00">
        <vehicle id="0" x="92.46" y="95.92" angle="359.99" type="DEFAULT_VEHTYPE" speed="13.53" pos="84.62" lane="24.0.00_0" slope="0.00"/>
        <vehicle id="1" x="338.95" y="313.40" angle="0.03" type="DEFAULT_VEHTYPE" speed="8.30" pos="31.21" lane="16.0.00_0" slope="0.00"/>
        <vehicle id="10" x="20.22" y="330.63" angle="269.98" type="DEFAULT_VEHTYPE" speed="14.07" pos="59.22" lane="-3.0.00_0" slope="0.00"/>
        <vehicle id="11" x="278.16" y="330.64" angle="270.00" type="DEFAULT_VEHTYPE" speed="12.93" pos="47.53" lane="-1.0.00_0" slope="0.00"/>
        <vehicle id="12" x="40.75" y="-1.95" angle="90.03" type="DEFAULT_VEHTYPE" speed="9.17" pos="30.53" lane="-5.0.00_0" slope="0.00"/>
        <vehicle id="13" x="392.41" y="293.52" angle="180.08" type="DEFAULT_VEHTYPE" speed="8.51" pos="25.24" lane="8.0.00_0" slope="0.00"/>
        <vehicle id="14" x="395.68" y="5.22" angle="33.76" type="DEFAULT_VEHTYPE" speed="4.76" pos="14.39" lane="14.0.00_0" slope="0.00"/>
        <vehicle id="15" x="315.34" y="133.45" angle="270.01" type="DEFAULT_VEHTYPE" speed="3.31" pos="10.39" lane="12.0.00_0" slope="0.00"/>
        <vehicle id="17" x="107.85" y="326.66" angle="90.00" type="DEFAULT_VEHTYPE" speed="0.00" pos="5.10" lane="2.0.00_0" slope="0.00"/>
        <vehicle id="2" x="324.05" y="269.14" angle="89.99" type="DEFAULT_VEHTYPE" speed="5.73" pos="156.81" lane="-10.0.00_0" slope="0.00"/>
        <vehicle id="3" x="359.24" y="326.60" angle="90.03" type="DEFAULT_VEHTYPE" speed="10.46" pos="10.95" lane="0.0.00_0" slope="0.00"/>
        <vehicle id="4" x="179.81" y="199.16" angle="270.03" type="DEFAULT_VEHTYPE" speed="14.23" pos="145.89" lane="4.0.00_0" slope="0.00"/>
        <vehicle id="5" x="217.27" y="133.46" angle="270.01" type="DEFAULT_VEHTYPE" speed="10.35" pos="108.46" lane="12.0.00_0" slope="0.00"/>
        <vehicle id="6" x="334.89" y="208.61" angle="180.03" type="DEFAULT_VEHTYPE" speed="11.50" pos="50.97" lane="-17.0.00_0" slope="0.00"/>
        <vehicle id="7" x="196.28" y="195.15" angle="90.03" type="DEFAULT_VEHTYPE" speed="11.37" pos="94.80" lane="-4.0.00_0" slope="0.00"/>
        <vehicle id="8" x="392.35" y="242.98" angle="180.01" type="DEFAULT_VEHTYPE" speed="12.70" pos="75.78" lane="8.0.00_0" slope="0.00"/>
        <vehicle id="9" x="332.94" y="330.62" angle="270.03" type="DEFAULT_VEHTYPE" speed="10.74" pos="15.35" lane=":43_0_0" slope="0.00"/>
    </timestep>
    <timestep time="18.00">
        <vehicle id="0" x="92.46" y="110.11" angle="359.99" type="DEFAULT_VEHTYPE" speed="14.19" pos="98.81" lane="24.0.00_0" slope="0.00"/>
        <vehicle id="1" x="339.31" y="320.17" angle="4.18" type="DEFAULT_VEHTYPE" speed="6.79" pos="2.39" lane=":43_2_0" slope="0.00"/>
        <vehicle id="10" x="6.22" y="330.19" angle="264.79" type="DEFAULT_VEHTYPE" speed="14.15" pos="4.92" lane="13.0.00_0" slope="0.00"/>
        <vehicle id="11" x="264.46" y="330.64" angle="270.00" type="DEFAULT_VEHTYPE" speed="13.70" pos="61.23" lane="-1.0.00_0" slope="0.00"/>
        <vehicle id="12" x="52.17" y="-1.95" angle="90.03" type="DEFAULT_VEHTYPE" speed="11.42" pos="41.95" lane="-5.0.00_0" slope="0.00"/>
        <vehicle id="13" x="392.40" y="283.56" angle="180.00" type="DEFAULT_VEHTYPE" speed="9.96" pos="35.20" lane="8.0.00_0" slope="0.00"/>
        <vehicle id="14" x="396.41" y="11.18" angle="3.90" type="DEFAULT_VEHTYPE" speed="6.15" pos="1.11" lane="-8.0.00_0" slope="0.00"/>
        <vehicle id="15" x="310.70" y="133.45" angle="270.01" type="DEFAULT_VEHTYPE" speed="4.64" pos="15.03" lane="12.0.00_0" slope="0.00"/>
        <vehicle id="16" x="353.39" y="326.61" angle="90.03" type="DEFAULT_VEHTYPE" speed="0.00" pos="5.10" lane="0.0.00_0" slope="0.00"/>
        <vehicle id="17" x="109.84" y="326.66" angle="90.00" type="DEFAULT_VEHTYPE" speed="1.99" pos="7.09" lane="2.0.00_0" slope="0.00"/>
        <vehicle id="2" x="331.76" y="270.12" angle="80.52" type="DEFAULT_VEHTYPE" speed="7.81" pos="6.17" lane=":111_5_0" slope="0.00"/>
        <vehicle id="3" x="371.91" y="326.60" angle="90.03" type="DEFAULT_VEHTYPE" speed="12.68" pos="23.62" lane="0.0.00_0" slope="0.00"/>
        <vehicle id="4" x="166.36" y="199.17" angle="270.03" type="DEFAULT_VEHTYPE" speed="13.45" pos="159.34" lane="4.0.00_0" slope="0.00"/>
        <vehicle id="5" x="206.45" y="133.46" angle="270.01" type="DEFAULT_VEHTYPE" speed="10.81" pos="119.28" lane="12.0.00_0" slope="0.00"/>
        <vehicle id="6" x="332.68" y="201.48" angle="202.88" type="DEFAULT_VEHTYPE" speed="7.63" pos="7.06" lane=":139_0_0" slope="0.00"/>
        <vehicle id="7" x="207.97" y="195.15" angle="90.03" type="DEFAULT_VEHTYPE" speed="11.69" pos="106.49" lane="-4.0.00_0" slope="0.00"/>
        <vehicle id="8" x="392.35" y="230.56" angle="180.00" type="DEFAULT_VEHTYPE" speed="12.41" pos="88.20" lane="8.0.00_0" slope="0.00"/>
        <vehicle id="9" x="321.97" y="330.62" angle="270.01" type="DEFAULT_VEHTYPE" speed="10.98" pos="3.72" lane="-1.0.00_0" slope="0.00"/>
    </timestep>
    <timestep time="19.00">
        <vehicle id="0" x="92.46" y="123.78" angle="360.00" type="DEFAULT_VEHTYPE" speed="13.67" pos="3.50" lane=":128_5_0" slope="0.00"/>
        <vehicle id="1" x="343.12" y="325.44" angle="44.23" type="DEFAULT_VEHTYPE" speed="6.87" pos="9.25" lane=":43_2_0" slope="0.00"/>
        <vehicle id="10" x="-1.97" y="319.66" angle="192.34" type="DEFAULT_VEHTYPE" speed="14.41" pos="19.33" lane="13.0.00_0" slope="0.00"/>
        <vehicle id="11" x="250.84" y="330.64" angle="270.00" type="DEFAULT_VEHTYPE" speed="13.62" pos="74.85" lane="-1.0.00_0" slope="0.00"/>
        <vehicle id="12" x="66.18" y="-1.96" angle="90.03" type="DEFAULT_VEHTYPE" speed="14.01" pos="55.96" lane="-5.0.00_0" slope="0.00"/>
        <vehicle id="13" x="392.38" y="271.05" angle="180.11" type="DEFAULT_VEHTYPE" speed="12.51" pos="47.71" lane="8.0.00_0" slope="0.00"/>
        <vehicle id="14" x="396.41" y="18.65" angle="0.00" type="DEFAULT_VEHTYPE" speed="7.47" pos="8.58" lane="-8.0.00_0" slope="0.00"/>
        <vehicle id="15" x="303.93" y="133.45" angle="270.01" type="DEFAULT_VEHTYPE" speed="6.77" pos="21.80" lane="12.0.00_0" slope="0.00"/>
        <vehicle id="16" x="355.45" y="326.61" angle="90.03" type="DEFAULT_VEHTYPE" speed="2.06" pos="7.16" lane="0.0.00_0" slope="0.00"/>
        <vehicle id="17" x="113.32" y="326.66" angle="90.00" type="DEFAULT_VEHTYPE" speed="3.48" pos="10.57" lane="2.0.00_0" slope="0.00"/>
        <vehicle id="19" x="379.55" y="330.59" angle="270.03" type="DEFAULT_VEHTYPE" speed="0.00" pos="5.10" lane="-0.0.00_0" slope="0.00"/>
        <vehicle id="2" x="337.94" y="276.22" angle="34.17" type="DEFAULT_VEHTYPE" speed="8.96" pos="15.13" lane=":111_5_0" slope="0.00"/>
        <vehicle id="3" x="386.03" y="326.54" angle="90.65" type="DEFAULT_VEHTYPE" speed="14.12" pos="1.38" lane=":11.0_1_0" slope="0.00"/>
        <vehicle id="4" x="152.09" y="199.18" angle="270.03" type="DEFAULT_VEHTYPE" speed="14.27" pos="173.61" lane="4.0.00_0" slope="0.00"/>
        <vehicle id="5" x="195.61" y="133.46" angle="270.01" type="DEFAULT_VEHTYPE" speed="10.84" pos="130.12" lane="12.0.00_0" slope="0.00"/>