<?xml version="1.0" encoding="UTF-8"?>

<!-- generated on Wed Aug 14 11:56:33 2019 by Eclipse SUMO Version 1.2.0
<configuration xmlns:xsi="http://www.w3.org/2001/XMLSchema-instance" xsi:noNamespaceSchemaLocation="http://sumo.dlr.de/xsd/sumoConfiguration.xsd">

    <input>
        <net-file value="Town01.net.xml"/>
        <route-files value="trips.trips.xml"/>
    </input>

    <output>
        <netstate-dump value="test.log"/>
        <fcd-output value="Town01_Car50_3.log"/>
    </output>

    <time>
        <begin value="0"/>
        <end value="10000"/>
    </time>

</configuration>
-->

<fcd-export xmlns:xsi="http://www.w3.org/2001/XMLSchema-instance" xsi:noNamespaceSchemaLocation="http://sumo.dlr.de/xsd/fcd_file.xsd">
    <timestep time="0.00">
        <vehicle id="0" x="106.58" y="195.20" angle="90.03" type="DEFAULT_VEHTYPE" speed="0.00" pos="5.10" lane="-4.0.00_0" slope="0.00"/>
    </timestep>
    <timestep time="1.00">
        <vehicle id="0" x="108.71" y="195.20" angle="90.03" type="DEFAULT_VEHTYPE" speed="2.13" pos="7.23" lane="-4.0.00_0" slope="0.00"/>
        <vehicle id="1" x="338.89" y="213.13" angle="0.03" type="DEFAULT_VEHTYPE" speed="0.00" pos="5.10" lane="17.0.00_0" slope="0.00"/>
    </timestep>
    <timestep time="2.00">
        <vehicle id="0" x="112.60" y="195.19" angle="90.03" type="DEFAULT_VEHTYPE" speed="3.89" pos="11.12" lane="-4.0.00_0" slope="0.00"/>
        <vehicle id="1" x="338.89" y="215.62" angle="0.03" type="DEFAULT_VEHTYPE" speed="2.49" pos="7.59" lane="17.0.00_0" slope="0.00"/>
        <vehicle id="2" x="378.88" y="2.00" angle="270.00" type="DEFAULT_VEHTYPE" speed="0.00" pos="5.10" lane="7.0.00_0" slope="0.00"/>
    </timestep>
    <timestep time="3.00">
        <vehicle id="0" x="118.82" y="195.19" angle="90.03" type="DEFAULT_VEHTYPE" speed="6.22" pos="17.34" lane="-4.0.00_0" slope="0.00"/>
        <vehicle id="1" x="338.90" y="219.98" angle="0.03" type="DEFAULT_VEHTYPE" speed="4.36" pos="11.95" lane="17.0.00_0" slope="0.00"/>
        <vehicle id="2" x="376.37" y="2.00" angle="270.00" type="DEFAULT_VEHTYPE" speed="2.51" pos="7.61" lane="7.0.00_0" slope="0.00"/>
        <vehicle id="3" x="338.85" y="148.06" angle="0.03" type="DEFAULT_VEHTYPE" speed="0.00" pos="5.10" lane="18.0.00_0" slope="0.00"/>
    </timestep>
    <timestep time="4.00">
        <vehicle id="0" x="127.62" y="195.19" angle="90.03" type="DEFAULT_VEHTYPE" speed="8.80" pos="26.14" lane="-4.0.00_0" slope="0.00"/>
        <vehicle id="1" x="338.90" y="226.88" angle="0.03" type="DEFAULT_VEHTYPE" speed="6.90" pos="18.85" lane="17.0.00_0" slope="0.00"/>
        <vehicle id="2" x="371.75" y="2.00" angle="270.00" type="DEFAULT_VEHTYPE" speed="4.62" pos="12.23" lane="7.0.00_0" slope="0.00"/>
        <vehicle id="3" x="338.85" y="150.18" angle="0.03" type="DEFAULT_VEHTYPE" speed="2.12" pos="7.22" lane="18.0.00_0" slope="0.00"/>
        <vehicle id="4" x="5.14" y="3.63" angle="288.52" type="DEFAULT_VEHTYPE" speed="0.00" pos="5.10" lane="-20.0.00_0" slope="0.00"/>
    </timestep>
    <timestep time="5.00">
        <vehicle id="0" x="138.24" y="195.18" angle="90.03" type="DEFAULT_VEHTYPE" speed="10.62" pos="36.76" lane="-4.0.00_0" slope="0.00"/>
        <vehicle id="1" x="338.91" y="236.00" angle="0.03" type="DEFAULT_VEHTYPE" speed="9.12" pos="27.97" lane="17.0.00_0" slope="0.00"/>
        <vehicle id="2" x="365.79" y="2.00" angle="270.00" type="DEFAULT_VEHTYPE" speed="5.96" pos="18.19" lane="7.0.00_0" slope="0.00"/>
        <vehicle id="3" x="338.86" y="154.73" angle="0.03" type="DEFAULT_VEHTYPE" speed="4.55" pos="11.77" lane="18.0.00_0" slope="0.00"/>
        <vehicle id="4" x="3.76" y="5.25" angle="306.60" type="DEFAULT_VEHTYPE" speed="2.14" pos="7.24" lane="-20.0.00_0" slope="0.00"/>
        <vehicle id="5" x="88.46" y="115.18" angle="179.99" type="DEFAULT_VEHTYPE" speed="0.00" pos="5.10" lane="-24.0.00_0" slope="0.00"/>
    </timestep>
    <timestep time="6.00">
        <vehicle id="0" x="151.06" y="195.18" angle="90.03" type="DEFAULT_VEHTYPE" speed="12.82" pos="49.58" lane="-4.0.00_0" slope="0.00"/>
        <vehicle id="1" x="338.91" y="247.56" angle="0.03" type="DEFAULT_VEHTYPE" speed="11.55" pos="39.53" lane="17.0.00_0" slope="0.00"/>
        <vehicle id="2" x="358.20" y="2.00" angle="270.00" type="DEFAULT_VEHTYPE" speed="7.59" pos="25.78" lane="7.0.00_0" slope="0.00"/>
        <vehicle id="3" x="338.86" y="161.10" angle="0.03" type="DEFAULT_VEHTYPE" speed="6.38" pos="18.15" lane="18.0.00_0" slope="0.00"/>
        <vehicle id="4" x="2.35" y="8.48" angle="332.08" type="DEFAULT_VEHTYPE" speed="3.55" pos="10.79" lane="-20.0.00_0" slope="0.00"/>
        <vehicle id="5" x="88.46" y="113.51" angle="179.99" type="DEFAULT_VEHTYPE" speed="1.67" pos="6.77" lane="-24.0.00_0" slope="0.00"/>
    </timestep>
    <timestep time="7.00">
        <vehicle id="0" x="164.85" y="195.17" angle="90.03" type="DEFAULT_VEHTYPE" speed="13.79" pos="63.37" lane="-4.0.00_0" slope="0.00"/>
        <vehicle id="1" x="338.92" y="260.23" angle="0.03" type="DEFAULT_VEHTYPE" speed="12.68" pos="0.65" lane=":111_2_0" slope="0.00"/>
        <vehicle id="2" x="349.24" y="2.00" angle="270.00" type="DEFAULT_VEHTYPE" speed="8.96" pos="34.74" lane="7.0.00_0" slope="0.00"/>
        <vehicle id="3" x="338.86" y="169.59" angle="0.03" type="DEFAULT_VEHTYPE" speed="8.49" pos="26.64" lane="18.0.00_0" slope="0.00"/>
        <vehicle id="4" x="2.07" y="13.55" angle="357.07" type="DEFAULT_VEHTYPE" speed="5.09" pos="2.39" lane="15.0.00_0" slope="0.00"/>
        <vehicle id="5" x="88.46" y="109.96" angle="179.99" type="DEFAULT_VEHTYPE" speed="3.56" pos="10.32" lane="-24.0.00_0" slope="0.00"/>
        <vehicle id="6" x="5.14" y="3.63" angle="288.52" type="DEFAULT_VEHTYPE" speed="0.00" pos="5.10" lane="-20.0.00_0" slope="0.00"/>
        <vehicle id="7" x="334.83" y="114.35" angle="180.03" type="DEFAULT_VEHTYPE" speed="0.00" pos="5.10" lane="-19.0.00_0" slope="0.00"/>
    </timestep>
    <timestep time="8.00">
        <vehicle id="0" x="178.35" y="195.16" angle="90.03" type="DEFAULT_VEHTYPE" speed="13.50" pos="76.87" lane="-4.0.00_0" slope="0.00"/>
        <vehicle id="1" x="338.93" y="272.69" angle="0.03" type="DEFAULT_VEHTYPE" speed="12.46" pos="13.11" lane=":111_2_0" slope="0.00"/>
        <vehicle id="2" x="341.84" y="3.79" angle="289.06" type="DEFAULT_VEHTYPE" speed="7.78" pos="6.33" lane=":60_2_0" slope="0.00"/>
        <vehicle id="3" x="338.87" y="180.55" angle="0.03" type="DEFAULT_VEHTYPE" speed="10.96" pos="37.60" lane="18.0.00_0" slope="0.00"/>
        <vehicle id="4" x="2.07" y="20.07" angle="0.00" type="DEFAULT_VEHTYPE" speed="6.52" pos="8.91" lane="15.0.00_0" slope="0.00"/>
        <vehicle id="5" x="88.46" y="104.55" angle="179.99" type="DEFAULT_VEHTYPE" speed="5.41" pos="15.73" lane="-24.0.00_0" slope="0.00"/>
        <vehicle id="6" x="4.05" y="4.82" angle="302.14" type="DEFAULT_VEHTYPE" speed="1.63" pos="6.73" lane="-20.0.00_0" slope="0.00"/>
        <vehicle id="7" x="334.83" y="112.97" angle="180.03" type="DEFAULT_VEHTYPE" speed="1.38" pos="6.48" lane="-19.0.00_0" slope="0.00"/>
        <vehicle id="8" x="334.87" y="179.84" angle="180.03" type="DEFAULT_VEHTYPE" speed="0.00" pos="5.10" lane="-18.0.00_0" slope="0.00"/>
    </timestep>
    <timestep time="9.00">
        <vehicle id="0" x="193.07" y="195.16" angle="90.03" type="DEFAULT_VEHTYPE" speed="14.72" pos="91.60" lane="-4.0.00_0" slope="0.00"/>
        <vehicle id="1" x="338.93" y="285.07" angle="0.03" type="DEFAULT_VEHTYPE" speed="12.39" pos="2.88" lane="16.0.00_0" slope="0.00"/>
        <vehicle id="2" x="338.94" y="9.92" angle="342.09" type="DEFAULT_VEHTYPE" speed="7.07" pos="13.41" lane=":60_2_0" slope="0.00"/>
        <vehicle id="3" x="338.88" y="194.01" angle="0.05" type="DEFAULT_VEHTYPE" speed="13.47" pos="9.07" lane=":139_2_0" slope="0.00"/>
        <vehicle id="4" x="2.07" y="29.19" angle="0.00" type="DEFAULT_VEHTYPE" speed="9.12" pos="18.03" lane="15.0.00_0" slope="0.00"/>
        <vehicle id="5" x="88.46" y="97.67" angle="179.99" type="DEFAULT_VEHTYPE" speed="6.88" pos="22.61" lane="-24.0.00_0" slope="0.00"/>
        <vehicle id="6" x="2.47" y="8.00" angle="329.06" type="DEFAULT_VEHTYPE" speed="3.57" pos="10.30" lane="-20.0.00_0" slope="0.00"/>
        <vehicle id="7" x="334.82" y="109.90" angle="180.03" type="DEFAULT_VEHTYPE" speed="3.07" pos="9.55" lane="-19.0.00_0" slope="0.00"/>
        <vehicle id="8" x="334.87" y="178.13" angle="180.03" type="DEFAULT_VEHTYPE" speed="1.71" pos="6.81" lane="-18.0.00_0" slope="0.00"/>
        <vehicle id="9" x="391.20" y="5.22" angle="194.33" type="DEFAULT_VEHTYPE" speed="0.00" pos="5.10" lane="-14.0.00_0" slope="0.00"/>
    </timestep>
    <timestep time="10.00">
        <vehicle id="0" x="206.86" y="195.15" angle="90.03" type="DEFAULT_VEHTYPE" speed="13.79" pos="105.38" lane="-4.0.00_0" slope="0.00"/>
        <vehicle id="1" x="338.94" y="297.53" angle="0.03" type="DEFAULT_VEHTYPE" speed="12.45" pos="15.34" lane="16.0.00_0" slope="0.00"/>
        <vehicle id="10" x="139.92" y="330.66" angle="270.00" type="DEFAULT_VEHTYPE" speed="0.00" pos="5.10" lane="-2.0.00_0" slope="0.00"/>
        <vehicle id="2" x="338.77" y="17.63" angle="0.03" type="DEFAULT_VEHTYPE" speed="7.72" pos="6.47" lane="19.0.00_0" slope="0.00"/>
        <vehicle id="3" x="338.89" y="208.77" angle="0.05" type="DEFAULT_VEHTYPE" speed="14.76" pos="0.74" lane="17.0.00_0" slope="0.00"/>
        <vehicle id="4" x="2.07" y="40.48" angle="0.00" type="DEFAULT_VEHTYPE" speed="11.29" pos="29.32" lane="15.0.00_0" slope="0.00"/>
        <vehicle id="5" x="88.47" y="88.31" angle="179.99" type="DEFAULT_VEHTYPE" speed="9.36" pos="31.97" lane="-24.0.00_0" slope="0.00"/>
        <vehicle id="6" x="2.07" y="13.66" angle="357.38" type="DEFAULT_VEHTYPE" speed="5.69" pos="2.50" lane="15.0.00_0" slope="0.00"/>
        <vehicle id="7" x="334.82" y="105.11" angle="180.03" type="DEFAULT_VEHTYPE" speed="4.79" pos="14.34" lane="-19.0.00_0" slope="0.00"/>
        <vehicle id="8" x="334.86" y="173.89" angle="180.03" type="DEFAULT_VEHTYPE" speed="4.24" pos="11.05" lane="-18.0.00_0" slope="0.00"/>
        <vehicle id="9" x="390.33" y="4.17" angle="204.67" type="DEFAULT_VEHTYPE" speed="1.38" pos="6.48" lane="-14.0.00_0" slope="0.00"/>
    </timestep>
    <timestep time="11.00">
        <vehicle id="0" x="220.96" y="195.14" angle="90.03" type="DEFAULT_VEHTYPE" speed="14.11" pos="119.49" lane="-4.0.00_0" slope="0.00"/>
        <vehicle id="1" x="338.94" y="307.99" angle="0.03" type="DEFAULT_VEHTYPE" speed="10.46" pos="25.80" lane="16.0.00_0" slope="0.00"/>
        <vehicle id="10" x="137.93" y="330.66" angle="270.00" type="DEFAULT_VEHTYPE" speed="1.99" pos="7.09" lane="-2.0.00_0" slope="0.00"/>
        <vehicle id="11" x="338.77" y="16.26" angle="0.03" type="DEFAULT_VEHTYPE" speed="0.00" pos="5.10" lane="19.0.00_0" slope="0.00"/>
        <vehicle id="2" x="338.78" y="27.86" angle="0.03" type="DEFAULT_VEHTYPE" speed="10.23" pos="16.70" lane="19.0.00_0" slope="0.00"/>
        <vehicle id="3" x="338.90" y="222.84" angle="0.03" type="DEFAULT_VEHTYPE" speed="14.06" pos="14.81" lane="17.0.00_0" slope="0.00"/>
        <vehicle id="4" x="2.08" y="54.20" angle="0.06" type="DEFAULT_VEHTYPE" speed="13.72" pos="43.04" lane="15.0.00_0" slope="0.00"/>
        <vehicle id="5" x="88.47" y="77.47" angle="179.99" type="DEFAULT_VEHTYPE" speed="10.85" pos="42.82" lane="-24.0.00_0" slope="0.00"/>
        <vehicle id="6" x="2.07" y="21.38" angle="0.00" type="DEFAULT_VEHTYPE" speed="7.73" pos="10.22" lane="15.0.00_0" slope="0.00"/>
        <vehicle id="7" x="334.82" y="98.44" angle="180.03" type="DEFAULT_VEHTYPE" speed="6.67" pos="21.01" lane="-19.0.00_0" slope="0.00"/>
        <vehicle id="8" x="334.86" y="167.63" angle="180.03" type="DEFAULT_VEHTYPE" speed="6.26" pos="17.31" lane="-18.0.00_0" slope="0.00"/>
        <vehicle id="9" x="388.05" y="2.73" angle="228.19" type="DEFAULT_VEHTYPE" speed="2.70" pos="9.18" lane="-14.0.00_0" slope="0.00"/>
    </timestep>
    <timestep time="12.00">
        <vehicle id="0" x="235.28" y="195.13" angle="90.03" type="DEFAULT_VEHTYPE" speed="14.32" pos="133.80" lane="-4.0.00_0" slope="0.00"/>
        <vehicle id="1" x="338.95" y="314.84" angle="0.03" type="DEFAULT_VEHTYPE" speed="6.85" pos="32.65" lane="16.0.00_0" slope="0.00"/>
        <vehicle id="10" x="134.08" y="330.66" angle="270.00" type="DEFAULT_VEHTYPE" speed="3.84" pos="10.93" lane="-2.0.00_0" slope="0.00"/>
        <vehicle id="11" x="338.77" y="17.64" angle="0.03" type="DEFAULT_VEHTYPE" speed="1.38" pos="6.48" lane="19.0.00_0" slope="0.00"/>
        <vehicle id="12" x="92.45" y="213.87" angle="359.99" type="DEFAULT_VEHTYPE" speed="0.00" pos="5.10" lane="22.0.00_0" slope="0.00"/>
        <vehicle id="2" x="338.79" y="40.23" angle="0.03" type="DEFAULT_VEHTYPE" speed="12.38" pos="29.07" lane="19.0.00_0" slope="0.00"/>
        <vehicle id="3" x="338.91" y="237.83" angle="0.03" type="DEFAULT_VEHTYPE" speed="14.99" pos="29.80" lane="17.0.00_0" slope="0.00"/>
        <vehicle id="4" x="2.08" y="68.33" angle="0.00" type="DEFAULT_VEHTYPE" speed="14.13" pos="57.17" lane="15.0.00_0" slope="0.00"/>
        <vehicle id="5" x="88.47" y="65.93" angle="179.99" type="DEFAULT_VEHTYPE" speed="11.54" pos="54.35" lane="-24.0.00_0" slope="0.00"/>
        <vehicle id="6" x="2.07" y="30.58" angle="0.00" type="DEFAULT_VEHTYPE" speed="9.20" pos="19.42" lane="15.0.00_0" slope="0.00"/>
        <vehicle id="7" x="334.81" y="90.35" angle="180.03" type="DEFAULT_VEHTYPE" speed="8.09" pos="29.10" lane="-19.0.00_0" slope="0.00"/>
        <vehicle id="8" x="334.86" y="160.07" angle="180.03" type="DEFAULT_VEHTYPE" speed="7.56" pos="24.87" lane="-18.0.00_0" slope="0.00"/>
        <vehicle id="9" x="384.02" y="2.00" angle="257.37" type="DEFAULT_VEHTYPE" speed="4.14" pos="0.29" lane=":7.14_0_0" slope="0.00"/>
    </timestep>
    <timestep time="13.00">
        <vehicle id="0" x="249.68" y="195.13" angle="90.03" type="DEFAULT_VEHTYPE" speed="14.40" pos="148.20" lane="-4.0.00_0" slope="0.00"/>
        <vehicle id="1" x="337.93" y="323.73" angle="349.97" type="DEFAULT_VEHTYPE" speed="9.01" pos="6.04" lane=":43_3_0" slope="0.00"/>
        <vehicle id="10" x="127.69" y="330.66" angle="270.00" type="DEFAULT_VEHTYPE" speed="6.39" pos="17.33" lane="-2.0.00_0" slope="0.00"/>
        <vehicle id="11" x="338.78" y="20.56" angle="0.03" type="DEFAULT_VEHTYPE" speed="2.92" pos="9.40" lane="19.0.00_0" slope="0.00"/>
        <vehicle id="12" x="92.45" y="215.59" angle="359.99" type="DEFAULT_VEHTYPE" speed="1.71" pos="6.81" lane="22.0.00_0" slope="0.00"/>
        <vehicle id="13" x="139.95" y="273.12" angle="269.99" type="DEFAULT_VEHTYPE" speed="0.00" pos="5.10" lane="9.0.00_0" slope="0.00"/>
        <vehicle id="2" x="338.79" y="54.05" angle="0.03" type="DEFAULT_VEHTYPE" speed="13.82" pos="42.89" lane="19.0.00_0" slope="0.00"/>
        <vehicle id="3" x="338.92" y="252.52" angle="0.03" type="DEFAULT_VEHTYPE" speed="14.69" pos="44.49" lane="17.0.00_0" slope="0.00"/>
        <vehicle id="4" x="2.08" y="81.40" angle="0.00" type="DEFAULT_VEHTYPE" speed="13.07" pos="70.24" lane="15.0.00_0" slope="0.00"/>
        <vehicle id="5" x="88.47" y="54.48" angle="179.99" type="DEFAULT_VEHTYPE" speed="11.45" pos="65.81" lane="-24.0.00_0" slope="0.00"/>
        <vehicle id="6" x="2.07" y="41.76" angle="0.00" type="DEFAULT_VEHTYPE" speed="11.18" pos="30.60" lane="15.0.00_0" slope="0.00"/>
        <vehicle id="7" x="334.81" y="80.16" angle="180.03" type="DEFAULT_VEHTYPE" speed="10.19" pos="39.29" lane="-19.0.00_0" slope="0.00"/>
        <vehicle id="8" x="334.85" y="150.92" angle="180.03" type="DEFAULT_VEHTYPE" speed="9.16" pos="34.03" lane="-18.0.00_0" slope="0.00"/>
        <vehicle id="9" x="377.67" y="2.00" angle="270.00" type="DEFAULT_VEHTYPE" speed="6.34" pos="6.31" lane="7.0.00_0" slope="0.00"/>
    </timestep>
    <timestep time="14.00">
        <vehicle id="0" x="263.73" y="195.12" angle="90.03" type="DEFAULT_VEHTYPE" speed="14.05" pos="162.25" lane="-4.0.00_0" slope="0.00"/>
        <vehicle id="1" x="331.56" y="329.78" angle="301.60" type="DEFAULT_VEHTYPE" speed="9.05" pos="15.09" lane=":43_3_0" slope="0.00"/>
        <vehicle id="10" x="119.88" y="330.66" angle="270.00" type="DEFAULT_VEHTYPE" speed="7.81" pos="25.13" lane="-2.0.00_0" slope="0.00"/>
        <vehicle id="11" x="338.78" y="25.48" angle="0.03" type="DEFAULT_VEHTYPE" speed="4.92" pos="14.32" lane="19.0.00_0" slope="0.00"/>
        <vehicle id="12" x="92.45" y="219.49" angle="359.99" type="DEFAULT_VEHTYPE" speed="3.91" pos="10.72" lane="22.0.00_0" slope="0.00"/>
        <vehicle id="13" x="137.43" y="273.12" angle="269.99" type="DEFAULT_VEHTYPE" speed="2.52" pos="7.62" lane="9.0.00_0" slope="0.00"/>
        <vehicle id="14" x="389.29" y="-1.11" angle="79.65" type="DEFAULT_VEHTYPE" speed="0.00" pos="5.10" lane="14.0.00_0" slope="0.00"/>
        <vehicle id="2" x="338.80" y="67.28" angle="0.03" type="DEFAULT_VEHTYPE" speed="13.23" pos="56.12" lane="19.0.00_0" slope="0.00"/>
        <vehicle id="3" x="338.92" y="267.54" angle="0.03" type="DEFAULT_VEHTYPE" speed="15.03" pos="7.97" lane=":111_2_0" slope="0.00"/>
        <vehicle id="4" x="2.08" y="94.46" angle="0.00" type="DEFAULT_VEHTYPE" speed="13.06" pos="83.30" lane="15.0.00_0" slope="0.00"/>
        <vehicle id="5" x="88.47" y="43.91" angle="179.99" type="DEFAULT_VEHTYPE" speed="10.57" pos="76.38" lane="-24.0.00_0" slope="0.00"/>
        <vehicle id="6" x="2.08" y="55.37" angle="0.00" type="DEFAULT_VEHTYPE" speed="13.61" pos="44.21" lane="15.0.00_0" slope="0.00"/>
        <vehicle id="7" x="334.80" y="67.95" angle="180.03" type="DEFAULT_VEHTYPE" speed="12.21" pos="51.50" lane="-19.0.00_0" slope="0.00"/>
        <vehicle id="8" x="334.85" y="144.23" angle="180.03" type="DEFAULT_VEHTYPE" speed="6.69" pos="40.72" lane="-18.0.00_0" slope="0.00"/>
        <vehicle id="9" x="369.19" y="2.00" angle="270.00" type="DEFAULT_VEHTYPE" speed="8.48" pos="14.79" lane="7.0.00_0" slope="0.00"/>
    </timestep>
    <timestep time="15.00">
        <vehicle id="0" x="277.68" y="195.11" angle="90.03" type="DEFAULT_VEHTYPE" speed="13.96" pos="176.21" lane="-4.0.00_0" slope="0.00"/>
        <vehicle id="1" x="323.40" y="330.62" angle="274.26" type="DEFAULT_VEHTYPE" speed="8.22" pos="2.29" lane="-1.0.00_0" slope="0.00"/>
        <vehicle id="10" x="110.43" y="330.66" angle="270.00" type="DEFAULT_VEHTYPE" speed="9.45" pos="34.59" lane="-2.0.00_0" slope="0.00"/>
        <vehicle id="11" x="338.78" y="32.63" angle="0.03" type="DEFAULT_VEHTYPE" speed="7.15" pos="21.47" lane="19.0.00_0" slope="0.00"/>
        <vehicle id="12" x="92.45" y="224.85" angle="359.99" type="DEFAULT_VEHTYPE" speed="5.36" pos="16.08" lane="22.0.00_0" slope="0.00"/>
        <vehicle id="13" x="133.28" y="273.12" angle="269.99" type="DEFAULT_VEHTYPE" speed="4.15" pos="11.77" lane="9.0.00_0" slope="0.00"/>
        <vehicle id="14" x="390.82" y="-0.41" angle="72.28" type="DEFAULT_VEHTYPE" speed="1.68" pos="6.78" lane="14.0.00_0" slope="0.00"/>
        <vehicle id="15" x="320.59" y="273.14" angle="269.99" type="DEFAULT_VEHTYPE" speed="0.00" pos="5.10" lane="10.0.00_0" slope="0.00"/>
        <vehicle id="2" x="338.81" y="80.60" angle="0.03" type="DEFAULT_VEHTYPE" speed="13.32" pos="69.44" lane="19.0.00_0" slope="0.00"/>
        <vehicle id="3" x="338.93" y="281.40" angle="0.03" type="DEFAULT_VEHTYPE" speed="13.86" pos="21.83" lane=":111_2_0" slope="0.00"/>
        <vehicle id="4" x="2.07" y="108.13" angle="0.00" type="DEFAULT_VEHTYPE" speed="13.67" pos="96.97" lane="15.0.00_0" slope="0.00"/>
        <vehicle id="5" x="88.48" y="32.80" angle="179.99" type="DEFAULT_VEHTYPE" speed="11.11" pos="87.49" lane="-24.0.00_0" slope="0.00"/>
        <vehicle id="6" x="2.08" y="69.25" angle="0.00" type="DEFAULT_VEHTYPE" speed="13.88" pos="58.09" lane="15.0.00_0" slope="0.00"/>
        <vehicle id="7" x="334.80" y="56.55" angle="180.03" type="DEFAULT_VEHTYPE" speed="11.40" pos="62.90" lane="-19.0.00_0" slope="0.00"/>
        <vehicle id="8" x="333.64" y="137.69" angle="193.44" type="DEFAULT_VEHTYPE" speed="6.75" pos="5.48" lane=":94_0_0" slope="0.00"/>
        <vehicle id="9" x="359.38" y="2.00" angle="270.00" type="DEFAULT_VEHTYPE" speed="9.81" pos="24.60" lane="7.0.00_0" slope="0.00"/>
    </timestep>
    <timestep time="16.00">
        <vehicle id="0" x="292.36" y="195.11" angle="90.03" type="DEFAULT_VEHTYPE" speed="14.68" pos="190.89" lane="-4.0.00_0" slope="0.00"/>
        <vehicle id="1" x="313.45" y="330.63" angle="270.03" type="DEFAULT_VEHTYPE" speed="9.95" pos="12.24" lane="-1.0.00_0" slope="0.00"/>
        <vehicle id="10" x="100.88" y="330.42" angle="267.26" type="DEFAULT_VEHTYPE" speed="9.56" pos="1.89" lane=":77_1_0" slope="0.00"/>
        <vehicle id="11" x="338.79" y="42.30" angle="0.03" type="DEFAULT_VEHTYPE" speed="9.67" pos="31.14" lane="19.0.00_0" slope="0.00"/>
        <vehicle id="12" x="92.45" y="231.63" angle="359.99" type="DEFAULT_VEHTYPE" speed="6.78" pos="22.86" lane="22.0.00_0" slope="0.00"/>
        <vehicle id="13" x="127.58" y="273.12" angle="269.99" type="DEFAULT_VEHTYPE" speed="5.70" pos="17.47" lane="9.0.00_0" slope="0.00"/>
        <vehicle id="14" x="393.26" y="1.44" angle="57.68" type="DEFAULT_VEHTYPE" speed="3.07" pos="9.85" lane="14.0.00_0" slope="0.00"/>
        <vehicle id="15" x="319.15" y="273.14" angle="269.99" type="DEFAULT_VEHTYPE" speed="1.44" pos="6.54" lane="10.0.00_0" slope="0.00"/>
        <vehicle id="2" x="338.82" y="94.56" angle="0.03" type="DEFAULT_VEHTYPE" speed="13.96" pos="83.40" lane="19.0.00_0" slope="0.00"/>
        <vehicle id="3" x="338.94" y="295.50" angle="0.03" type="DEFAULT_VEHTYPE" speed="14.10" pos="13.31" lane="16.0.00_0" slope="0.00"/>
        <vehicle id="4" x="2.06" y="121.61" angle="359.97" type="DEFAULT_VEHTYPE" speed="13.48" pos="110.45" lane="15.0.00_0" slope="0.00"/>
        <vehicle id="5" x="88.48" y="21.92" angle="179.99" type="DEFAULT_VEHTYPE" speed="10.88" pos="98.37" lane="-24.0.00_0" slope="0.00"/>
        <vehicle id="6" x="2.08" y="82.85" angle="0.00" type="DEFAULT_VEHTYPE" speed="13.60" pos="71.69" lane="15.0.00_0" slope="0.00"/>
        <vehicle id="7" x="334.79" y="45.53" angle="180.03" type="DEFAULT_VEHTYPE" speed="11.02" pos="73.92" lane="-19.0.00_0" slope="0.00"/>
        <vehicle id="8" x="328.76" y="133.90" angle="238.75" type="DEFAULT_VEHTYPE" speed="6.47" pos="11.95" lane=":94_0_0" slope="0.00"/>
        <vehicle id="9" x="348.71" y="2.00" angle="270.00" type="DEFAULT_VEHTYPE" speed="10.67" pos="35.27" lane="7.0.00_0" slope="0.00"/>
    </timestep>
    <timestep time="17.00">
        <vehicle id="0" x="306.96" y="195.10" angle="90.03" type="DEFAULT_VEHTYPE" speed="14.60" pos="205.49" lane="-4.0.00_0" slope="0.00"/>
        <vehicle id="1" x="302.00" y="330.63" angle="270.00" type="DEFAULT_VEHTYPE" speed="11.45" pos="23.69" lane="-1.0.00_0" slope="0.00"/>
        <vehicle id="10" x="95.93" y="329.56" angle="260.15" type="DEFAULT_VEHTYPE" speed="5.06" pos="6.94" lane=":77_1_0" slope="0.00"/>
        <vehicle id="11" x="338.79" y="53.97" angle="0.03" type="DEFAULT_VEHTYPE" speed="11.67" pos="42.81" lane="19.0.00_0" slope="0.00"/>
        <vehicle id="12" x="92.44" y="240.98" angle="359.99" type="DEFAULT_VEHTYPE" speed="9.35" pos="32.20" lane="22.0.00_0" slope="0.00"/>
        <vehicle id="13" x="119.35" y="273.11" angle="269.99" type="DEFAULT_VEHTYPE" speed="8.23" pos="25.70" lane="9.0.00_0" slope="0.00"/>
        <vehicle id="14" x="395.78" y="5.49" angle="32.38" type="DEFAULT_VEHTYPE" speed="4.82" pos="14.67" lane="14.0.00_0" slope="0.00"/>
        <vehicle id="15" x="316.03" y="273.14" angle="269.99" type="DEFAULT_VEHTYPE" speed="3.12" pos="9.66" lane="10.0.00_0" slope="0.00"/>
        <vehicle id="16" x="389.29" y="-1.11" angle="79.65" type="DEFAULT_VEHTYPE" speed="0.00" pos="5.10" lane="14.0.00_0" slope="0.00"/>
        <vehicle id="17" x="172.33" y="269.12" angle="89.99" type="DEFAULT_VEHTYPE" speed="0.00" pos="5.10" lane="-10.0.00_0" slope="0.00"/>
        <vehicle id="2" x="338.82" y="107.67" angle="0.03" type="DEFAULT_VEHTYPE" speed="13.11" pos="96.51" lane="19.0.00_0" slope="0.00"/>
        <vehicle id="3" x="338.94" y="306.49" angle="0.03" type="DEFAULT_VEHTYPE" speed="10.99" pos="24.30" lane="16.0.00_0" slope="0.00"/>
        <vehicle id="4" x="2.05" y="135.88" angle="359.94" type="DEFAULT_VEHTYPE" speed="14.27" pos="124.72" lane="15.0.00_0" slope="0.00"/>
        <vehicle id="5" x="88.48" y="15.19" angle="179.99" type="DEFAULT_VEHTYPE" speed="6.74" pos="105.10" lane="-24.0.00_0" slope="0.00"/>
        <vehicle id="6" x="2.07" y="97.05" angle="359.91" type="DEFAULT_VEHTYPE" speed="14.20" pos="85.89" lane="15.0.00_0" slope="0.00"/>
        <vehicle id="7" x="334.78" y="33.39" angle="180.03" type="DEFAULT_VEHTYPE" speed="12.13" pos="86.06" lane="-19.0.00_0" slope="0.00"/>
        <vehicle id="8" x="321.97" y="133.45" angle="267.92" type="DEFAULT_VEHTYPE" speed="6.82" pos="3.76" lane="12.0.00_0" slope="0.00"/>
        <vehicle id="9" x="342.44" y="3.42" angle="285.76" type="DEFAULT_VEHTYPE" speed="6.55" pos="5.63" lane=":60_2_0" slope="0.00"/>
    </timestep>
    <timestep time="18.00">
        <vehicle id="0" x="317.06" y="195.09" angle="90.03" type="DEFAULT_VEHTYPE" speed="10.10" pos="215.59" lane="-4.0.00_0" slope="0.00"/>
        <vehicle id="1" x="288.98" y="330.64" angle="270.00" type="DEFAULT_VEHTYPE" speed="13.02" pos="36.71" lane="-1.0.00_0" slope="0.00"/>
        <vehicle id="10" x="90.82" y="325.72" angle="230.08" type="DEFAULT_VEHTYPE" speed="6.57" pos="4.63" lane=":77_6_0" slope="0.00"/>
        <vehicle id="11" x="338.80" y="67.58" angle="0.03" type="DEFAULT_VEHTYPE" speed="13.60" pos="56.42" lane="19.0.00_0" slope="0.00"/>
        <vehicle id="12" x="92.44" y="252.85" angle="359.99" type="DEFAULT_VEHTYPE" speed="11.87" pos="44.07" lane="22.0.00_0" slope="0.00"/>
        <vehicle id="13" x="109.90" y="273.11" angle="269.99" type="DEFAULT_VEHTYPE" speed="9.44" pos="35.15" lane="9.0.00_0" slope="0.00"/>
        <vehicle id="14" x="396.41" y="12.25" angle="2.01" type="DEFAULT_VEHTYPE" speed="6.94" pos="2.18" lane="-8.0.00_0" slope="0.00"/>
        <vehicle id="15" x="310.38" y="273.14" angle="269.99" type="DEFAULT_VEHTYPE" speed="5.66" pos="15.31" lane="10.0.00_0" slope="0.00"/>
        <vehicle id="16" x="390.44" y="-0.59" angle="74.03" type="DEFAULT_VEHTYPE" speed="1.26" pos="6.36" lane="14.0.00_0" slope="0.00"/>
        <vehicle id="17" x="174.21" y="269.12" angle="89.99" type="DEFAULT_VEHTYPE" speed="1.88" pos="6.98" lane="-10.0.00_0" slope="0.00"/>
        <vehicle id="2" x="338.83" y="120.44" angle="0.04" type="DEFAULT_VEHTYPE" speed="12.76" pos="0.99" lane=":94_2_0" slope="0.00"/>
        <vehicle id="3" x="338.95" y="314.10" angle="0.03" type="DEFAULT_VEHTYPE" speed="7.61" pos="31.91" lane="16.0.00_0" slope="0.00"/>
        <vehicle id="4" x="2.05" y="149.34" angle="0.00" type="DEFAULT_VEHTYPE" speed="13.46" pos="138.18" lane="15.0.00_0" slope="0.00"/>
        <vehicle id="5" x="89.05" y="7.30" angle="173.49" type="DEFAULT_VEHTYPE" speed="7.93" pos="4.05" lane=":195_1_0" slope="0.00"/>
        <vehicle id="6" x="2.07" y="110.77" angle="0.00" type="DEFAULT_VEHTYPE" speed="13.72" pos="99.61" lane="15.0.00_0" slope="0.00"/>
        <vehicle id="7" x="334.78" y="21.92" angle="180.03" type="DEFAULT_VEHTYPE" speed="11.48" pos="97.53" lane="-19.0.00_0" slope="0.00"/>
        <vehicle id="8" x="313.40" y="133.45" angle="270.01" type="DEFAULT_VEHTYPE" speed="8.57" pos="12.33" lane="12.0.00_0" slope="0.00"/>
        <vehicle id="9" x="339.18" y="8.22" angle="330.97" type="DEFAULT_VEHTYPE" speed="6.06" pos="11.69" lane=":60_2_0" slope="0.00"/>
    </timestep>
    <timestep time="19.00">
        <vehicle id="0" x="322.74" y="195.09" angle="90.03" type="DEFAULT_VEHTYPE" speed="5.69" pos="221.27" lane="-4.0.00_0" slope="0.00"/>
        <vehicle id="1" x="276.15" y="330.64" angle="270.00" type="DEFAULT_VEHTYPE" speed="12.83" pos="49.54" lane="-1.0.00_0" slope="0.00"/>
        <vehicle id="10" x="88.44" y="318.02" angle="189.19" type="DEFAULT_VEHTYPE" speed="8.23" pos="12.86" lane=":77_6_0" slope="0.00"/>
        <vehicle id="11" x="338.81" y="81.24" angle="0.03" type="DEFAULT_VEHTYPE" speed="13.66" pos="70.08" lane="19.0.00_0" slope="0.00"/>
        <vehicle id="12" x="92.44" y="266.16" angle="0.00" type="DEFAULT_VEHTYPE" speed="13.31" pos="5.70" lane=":184_5_0" slope="0.00"/>
        <vehicle id="13" x="104.20" y="273.11" angle="269.99" type="DEFAULT_VEHTYPE" speed="5.71" pos="40.85" lane="9.0.00_0" slope="0.00"/>
        <vehicle id="14" x="396.41" y="20.50" angle="0.00" type="DEFAULT_VEHTYPE" speed="8.26" pos="10.43" lane="-8.0.00_0" slope="0.00"/>
        <vehicle id="15" x="302.76" y="273.14" angle="269.99" type="DEFAULT_VEHTYPE" speed="7.62" pos="22.93" lane="10.0.00_0" slope="0.00"/>
        <vehicle id="16" x="393.11" y="1.29" angle="58.55" type="DEFAULT_VEHTYPE" speed="3.28" pos="9.64" lane="14.0.00_0" slope="0.00"/>
        <vehicle id="17" x="178.03" y="269.12" angle="89.99" type="DEFAULT_VEHTYPE" speed="3.82" pos="10.80" lane="-10.0.00_0" slope="0.00"/>
        <vehicle id="19" x="92.48" y="16.41" angle="359.99" type="DEFAULT_VEHTYPE" speed="0.00" pos="5.10" lane="24.0.00_0" slope="0.00"/>
        <vehicle id="2" x="338.84" y="133.96" angle="0.05" type="DEFAULT_VEHTYPE" speed="13.52" pos="14.50" lane=":94_2_0" slope="0.00"/>
        <vehicle id="3" x="338.14" y="323.37" angle="351.68" type="DEFAULT_VEHTYPE" speed="9.33" pos="5.61" lane=":43_3_0" slope="0.00"/>
        <vehicle id="4" x="2.04" y="163.31" angle="0.00" type="DEFAULT_VEHTYPE" speed="13.96" pos="152.15" lane="15.0.00_0" slope="0.00"/>
        <vehicle id="5" x="92.48" y="0.92" angle="144.67" type="DEFAULT_VEHTYPE" speed="7.47" pos="11.52" lane=":195_1_0" slope="0.00"/>
        <vehicle id="6" x="2.06" y="125.01" angle="0.00" type="DEFAULT_VEHTYPE" speed="14.23" pos="113.85" lane="15.0.00_0" slope="0.00"/>