<?xml version="1.0" encoding="UTF-8"?>

<!-- generated on Wed Aug 14 12:00:10 2019 by Eclipse SUMO Version 1.2.0
<configuration xmlns:xsi="http://www.w3.org/2001/XMLSchema-instance" xsi:noNamespaceSchemaLocation="http://sumo.dlr.de/xsd/sumoConfiguration.xsd">

    <input>
        <net-file value="Town01.net.xml"/>
        <route-files value="trips.trips.xml"/>
    </input>

    <output>
        <netstate-dump value="test.log"/>
        <fcd-output value="Town01_Car100_3.log"/>
    </output>

    <time>
        <begin value="0"/>
        <end value="10000"/>
    </time>

</configuration>
-->

<fcd-export xmlns:xsi="http://www.w3.org/2001/XMLSchema-instance" xsi:noNamespaceSchemaLocation="http://sumo.dlr.de/xsd/fcd_file.xsd">
    <timestep time="0.00">
        <vehicle id="0" x="396.41" y="15.17" angle="0.00" type="DEFAULT_VEHTYPE" speed="0.00" pos="5.10" lane="-8.0.00_0" slope="0.00"/>
    </timestep>
    <timestep time="1.00">
        <vehicle id="0" x="396.41" y="16.49" angle="0.00" type="DEFAULT_VEHTYPE" speed="1.32" pos="6.42" lane="-8.0.00_0" slope="0.00"/>
        <vehicle id="1" x="158.09" y="287.51" angle="0.08" type="DEFAULT_VEHTYPE" speed="0.00" pos="5.10" lane="25.0.00_0" slope="0.00"/>
    </timestep>
    <timestep time="2.00">
        <vehicle id="0" x="396.41" y="20.31" angle="0.00" type="DEFAULT_VEHTYPE" speed="3.82" pos="10.24" lane="-8.0.00_0" slope="0.00"/>
        <vehicle id="1" x="158.09" y="289.71" angle="0.08" type="DEFAULT_VEHTYPE" speed="2.20" pos="7.30" lane="25.0.00_0" slope="0.00"/>
        <vehicle id="2" x="6.04" y="330.15" angle="264.42" type="DEFAULT_VEHTYPE" speed="0.00" pos="5.10" lane="13.0.00_0" slope="0.00"/>
    </timestep>
    <timestep time="3.00">
        <vehicle id="0" x="396.40" y="26.39" angle="359.89" type="DEFAULT_VEHTYPE" speed="6.09" pos="16.32" lane="-8.0.00_0" slope="0.00"/>
        <vehicle id="1" x="158.10" y="293.93" angle="0.08" type="DEFAULT_VEHTYPE" speed="4.22" pos="11.52" lane="25.0.00_0" slope="0.00"/>
        <vehicle id="2" x="3.87" y="329.28" angle="254.58" type="DEFAULT_VEHTYPE" speed="2.34" pos="7.44" lane="13.0.00_0" slope="0.00"/>
        <vehicle id="3" x="88.45" y="181.67" angle="179.99" type="DEFAULT_VEHTYPE" speed="0.00" pos="5.10" lane="-23.0.00_0" slope="0.00"/>
    </timestep>
    <timestep time="4.00">
        <vehicle id="0" x="396.40" y="34.27" angle="0.00" type="DEFAULT_VEHTYPE" speed="7.88" pos="24.20" lane="-8.0.00_0" slope="0.00"/>
        <vehicle id="1" x="158.11" y="300.73" angle="0.08" type="DEFAULT_VEHTYPE" speed="6.80" pos="18.32" lane="25.0.00_0" slope="0.00"/>
        <vehicle id="2" x="0.85" y="327.05" angle="236.64" type="DEFAULT_VEHTYPE" speed="3.78" pos="11.22" lane="13.0.00_0" slope="0.00"/>
        <vehicle id="3" x="88.45" y="179.09" angle="179.99" type="DEFAULT_VEHTYPE" speed="2.58" pos="7.68" lane="-23.0.00_0" slope="0.00"/>
        <vehicle id="4" x="5.14" y="3.63" angle="288.52" type="DEFAULT_VEHTYPE" speed="0.00" pos="5.10" lane="-20.0.00_0" slope="0.00"/>
    </timestep>
    <timestep time="5.00">
        <vehicle id="0" x="396.40" y="44.39" angle="0.00" type="DEFAULT_VEHTYPE" speed="10.11" pos="34.32" lane="-8.0.00_0" slope="0.00"/>
        <vehicle id="1" x="158.12" y="309.71" angle="0.08" type="DEFAULT_VEHTYPE" speed="8.98" pos="27.30" lane="25.0.00_0" slope="0.00"/>
        <vehicle id="2" x="-1.80" y="321.53" angle="202.58" type="DEFAULT_VEHTYPE" speed="6.23" pos="17.45" lane="13.0.00_0" slope="0.00"/>
        <vehicle id="3" x="88.45" y="173.98" angle="179.99" type="DEFAULT_VEHTYPE" speed="5.11" pos="12.79" lane="-23.0.00_0" slope="0.00"/>
        <vehicle id="4" x="3.76" y="5.25" angle="306.60" type="DEFAULT_VEHTYPE" speed="2.14" pos="7.24" lane="-20.0.00_0" slope="0.00"/>
        <vehicle id="5" x="92.48" y="16.41" angle="359.99" type="DEFAULT_VEHTYPE" speed="0.00" pos="5.10" lane="24.0.00_0" slope="0.00"/>
    </timestep>
    <timestep time="6.00">
        <vehicle id="0" x="396.39" y="57.09" angle="0.00" type="DEFAULT_VEHTYPE" speed="12.70" pos="47.02" lane="-8.0.00_0" slope="0.00"/>
        <vehicle id="1" x="158.13" y="315.34" angle="0.08" type="DEFAULT_VEHTYPE" speed="5.63" pos="32.93" lane="25.0.00_0" slope="0.00"/>
        <vehicle id="2" x="-1.97" y="313.54" angle="180.00" type="DEFAULT_VEHTYPE" speed="8.09" pos="5.11" lane="-15.0.00_0" slope="0.00"/>
        <vehicle id="3" x="88.45" y="166.35" angle="179.99" type="DEFAULT_VEHTYPE" speed="7.62" pos="20.42" lane="-23.0.00_0" slope="0.00"/>
        <vehicle id="4" x="2.35" y="8.48" angle="332.08" type="DEFAULT_VEHTYPE" speed="3.55" pos="10.79" lane="-20.0.00_0" slope="0.00"/>
        <vehicle id="5" x="92.48" y="18.37" angle="359.99" type="DEFAULT_VEHTYPE" speed="1.96" pos="7.06" lane="24.0.00_0" slope="0.00"/>
        <vehicle id="6" x="106.58" y="195.20" angle="90.03" type="DEFAULT_VEHTYPE" speed="0.00" pos="5.10" lane="-4.0.00_0" slope="0.00"/>
    </timestep>
    <timestep time="7.00">
        <vehicle id="0" x="396.39" y="71.53" angle="0.00" type="DEFAULT_VEHTYPE" speed="14.44" pos="61.46" lane="-8.0.00_0" slope="0.00"/>
        <vehicle id="1" x="159.36" y="322.61" angle="14.54" type="DEFAULT_VEHTYPE" speed="7.51" pos="4.95" lane=":26_2_0" slope="0.00"/>
        <vehicle id="2" x="-1.98" y="302.89" angle="180.11" type="DEFAULT_VEHTYPE" speed="10.65" pos="15.76" lane="-15.0.00_0" slope="0.00"/>
        <vehicle id="3" x="88.46" y="156.15" angle="179.99" type="DEFAULT_VEHTYPE" speed="10.20" pos="30.62" lane="-23.0.00_0" slope="0.00"/>
        <vehicle id="4" x="2.07" y="13.55" angle="357.07" type="DEFAULT_VEHTYPE" speed="5.09" pos="2.39" lane="15.0.00_0" slope="0.00"/>
        <vehicle id="5" x="92.48" y="22.81" angle="359.99" type="DEFAULT_VEHTYPE" speed="4.44" pos="11.50" lane="24.0.00_0" slope="0.00"/>
        <vehicle id="6" x="108.71" y="195.20" angle="90.03" type="DEFAULT_VEHTYPE" speed="2.13" pos="7.23" lane="-4.0.00_0" slope="0.00"/>
        <vehicle id="7" x="88.44" y="255.36" angle="179.99" type="DEFAULT_VEHTYPE" speed="0.00" pos="5.10" lane="-22.0.00_0" slope="0.00"/>
    </timestep>
    <timestep time="8.00">
        <vehicle id="0" x="396.38" y="85.74" angle="0.00" type="DEFAULT_VEHTYPE" speed="14.21" pos="75.67" lane="-8.0.00_0" slope="0.00"/>
        <vehicle id="1" x="165.54" y="326.33" angle="69.60" type="DEFAULT_VEHTYPE" speed="7.58" pos="12.53" lane=":26_2_0" slope="0.00"/>
        <vehicle id="2" x="-1.98" y="289.72" angle="180.00" type="DEFAULT_VEHTYPE" speed="13.17" pos="28.93" lane="-15.0.00_0" slope="0.00"/>
        <vehicle id="3" x="88.46" y="143.72" angle="179.99" type="DEFAULT_VEHTYPE" speed="12.44" pos="43.05" lane="-23.0.00_0" slope="0.00"/>
        <vehicle id="4" x="2.07" y="20.07" angle="0.00" type="DEFAULT_VEHTYPE" speed="6.52" pos="8.91" lane="15.0.00_0" slope="0.00"/>
        <vehicle id="5" x="92.48" y="28.64" angle="359.99" type="DEFAULT_VEHTYPE" speed="5.83" pos="17.33" lane="24.0.00_0" slope="0.00"/>
        <vehicle id="6" x="112.60" y="195.19" angle="90.03" type="DEFAULT_VEHTYPE" speed="3.89" pos="11.12" lane="-4.0.00_0" slope="0.00"/>
        <vehicle id="7" x="88.44" y="252.81" angle="179.99" type="DEFAULT_VEHTYPE" speed="2.55" pos="7.65" lane="-22.0.00_0" slope="0.00"/>
        <vehicle id="8" x="6.04" y="330.15" angle="264.42" type="DEFAULT_VEHTYPE" speed="0.00" pos="5.10" lane="13.0.00_0" slope="0.00"/>
    </timestep>
    <timestep time="9.00">
        <vehicle id="0" x="396.38" y="99.48" angle="0.00" type="DEFAULT_VEHTYPE" speed="13.74" pos="89.41" lane="-8.0.00_0" slope="0.00"/>
        <vehicle id="1" x="172.62" y="326.65" angle="89.27" type="DEFAULT_VEHTYPE" speed="7.10" pos="4.48" lane="1.0.00_0" slope="0.00"/>
        <vehicle id="2" x="-1.99" y="276.29" angle="180.11" type="DEFAULT_VEHTYPE" speed="13.43" pos="42.36" lane="-15.0.00_0" slope="0.00"/>
        <vehicle id="3" x="88.46" y="129.75" angle="180.00" type="DEFAULT_VEHTYPE" speed="13.97" pos="12.53" lane=":128_0_0" slope="0.00"/>
        <vehicle id="4" x="2.07" y="29.19" angle="0.00" type="DEFAULT_VEHTYPE" speed="9.12" pos="18.03" lane="15.0.00_0" slope="0.00"/>
        <vehicle id="5" x="92.48" y="36.85" angle="359.99" type="DEFAULT_VEHTYPE" speed="8.21" pos="25.54" lane="24.0.00_0" slope="0.00"/>
        <vehicle id="6" x="118.82" y="195.19" angle="90.03" type="DEFAULT_VEHTYPE" speed="6.22" pos="17.34" lane="-4.0.00_0" slope="0.00"/>
        <vehicle id="7" x="88.44" y="248.05" angle="179.99" type="DEFAULT_VEHTYPE" speed="4.76" pos="12.41" lane="-22.0.00_0" slope="0.00"/>
        <vehicle id="8" x="3.90" y="329.29" angle="254.74" type="DEFAULT_VEHTYPE" speed="2.30" pos="7.40" lane="13.0.00_0" slope="0.00"/>
        <vehicle id="9" x="320.68" y="2.00" angle="270.00" type="DEFAULT_VEHTYPE" speed="0.00" pos="5.10" lane="6.0.00_0" slope="0.00"/>
    </timestep>
    <timestep time="10.00">
        <vehicle id="0" x="396.37" y="112.99" angle="359.89" type="DEFAULT_VEHTYPE" speed="13.51" pos="102.92" lane="-8.0.00_0" slope="0.00"/>
        <vehicle id="1" x="181.97" y="326.65" angle="90.00" type="DEFAULT_VEHTYPE" speed="9.34" pos="13.82" lane="1.0.00_0" slope="0.00"/>
        <vehicle id="10" x="173.24" y="326.65" angle="90.00" type="DEFAULT_VEHTYPE" speed="0.00" pos="5.10" lane="1.0.00_0" slope="0.00"/>
        <vehicle id="2" x="-1.99" y="262.68" angle="180.00" type="DEFAULT_VEHTYPE" speed="13.62" pos="55.97" lane="-15.0.00_0" slope="0.00"/>
        <vehicle id="3" x="88.46" y="114.80" angle="179.99" type="DEFAULT_VEHTYPE" speed="14.95" pos="5.48" lane="-24.0.00_0" slope="0.00"/>
        <vehicle id="4" x="2.07" y="40.48" angle="0.00" type="DEFAULT_VEHTYPE" speed="11.29" pos="29.32" lane="15.0.00_0" slope="0.00"/>
        <vehicle id="5" x="92.47" y="46.50" angle="359.99" type="DEFAULT_VEHTYPE" speed="9.65" pos="35.19" lane="24.0.00_0" slope="0.00"/>
        <vehicle id="6" x="127.62" y="195.19" angle="90.03" type="DEFAULT_VEHTYPE" speed="8.80" pos="26.14" lane="-4.0.00_0" slope="0.00"/>
        <vehicle id="7" x="88.44" y="240.87" angle="179.99" type="DEFAULT_VEHTYPE" speed="7.17" pos="19.58" lane="-22.0.00_0" slope="0.00"/>
        <vehicle id="8" x="0.47" y="326.61" angle="233.71" type="DEFAULT_VEHTYPE" speed="4.40" pos="11.80" lane="13.0.00_0" slope="0.00"/>
        <vehicle id="9" x="319.01" y="2.00" angle="270.00" type="DEFAULT_VEHTYPE" speed="1.67" pos="6.77" lane="6.0.00_0" slope="0.00"/>
    </timestep>
    <timestep time="11.00">
        <vehicle id="0" x="396.37" y="126.92" angle="0.00" type="DEFAULT_VEHTYPE" speed="13.93" pos="116.85" lane="-8.0.00_0" slope="0.00"/>
        <vehicle id="1" x="193.79" y="326.65" angle="90.00" type="DEFAULT_VEHTYPE" speed="11.82" pos="25.64" lane="1.0.00_0" slope="0.00"/>
        <vehicle id="10" x="174.58" y="326.65" angle="90.00" type="DEFAULT_VEHTYPE" speed="1.34" pos="6.44" lane="1.0.00_0" slope="0.00"/>
        <vehicle id="11" x="338.85" y="148.06" angle="0.03" type="DEFAULT_VEHTYPE" speed="0.00" pos="5.10" lane="18.0.00_0" slope="0.00"/>
        <vehicle id="2" x="-2.00" y="248.84" angle="180.05" type="DEFAULT_VEHTYPE" speed="13.84" pos="69.81" lane="-15.0.00_0" slope="0.00"/>
        <vehicle id="3" x="88.46" y="100.70" angle="179.99" type="DEFAULT_VEHTYPE" speed="14.10" pos="19.58" lane="-24.0.00_0" slope="0.00"/>
        <vehicle id="4" x="2.08" y="54.20" angle="0.06" type="DEFAULT_VEHTYPE" speed="13.72" pos="43.04" lane="15.0.00_0" slope="0.00"/>
        <vehicle id="5" x="92.47" y="56.84" angle="359.99" type="DEFAULT_VEHTYPE" speed="10.35" pos="45.54" lane="24.0.00_0" slope="0.00"/>
        <vehicle id="6" x="138.24" y="195.18" angle="90.03" type="DEFAULT_VEHTYPE" speed="10.62" pos="36.76" lane="-4.0.00_0" slope="0.00"/>
        <vehicle id="7" x="88.45" y="231.54" angle="179.99" type="DEFAULT_VEHTYPE" speed="9.33" pos="28.91" lane="-22.0.00_0" slope="0.00"/>
        <vehicle id="8" x="-1.82" y="321.34" angle="201.54" type="DEFAULT_VEHTYPE" speed="5.84" pos="17.64" lane="13.0.00_0" slope="0.00"/>
        <vehicle id="9" x="314.98" y="2.00" angle="270.00" type="DEFAULT_VEHTYPE" speed="4.03" pos="10.80" lane="6.0.00_0" slope="0.00"/>
    </timestep>
    <timestep time="12.00">
        <vehicle id="0" x="396.37" y="140.91" angle="0.00" type="DEFAULT_VEHTYPE" speed="13.99" pos="130.84" lane="-8.0.00_0" slope="0.00"/>
        <vehicle id="1" x="205.64" y="326.65" angle="90.00" type="DEFAULT_VEHTYPE" speed="11.86" pos="37.50" lane="1.0.00_0" slope="0.00"/>
        <vehicle id="10" x="177.44" y="326.65" angle="90.00" type="DEFAULT_VEHTYPE" speed="2.87" pos="9.30" lane="1.0.00_0" slope="0.00"/>
        <vehicle id="11" x="338.85" y="150.18" angle="0.03" type="DEFAULT_VEHTYPE" speed="2.12" pos="7.22" lane="18.0.00_0" slope="0.00"/>
        <vehicle id="12" x="2.07" y="16.26" angle="0.00" type="DEFAULT_VEHTYPE" speed="0.00" pos="5.10" lane="15.0.00_0" slope="0.00"/>
        <vehicle id="2" x="-2.00" y="235.40" angle="180.00" type="DEFAULT_VEHTYPE" speed="13.44" pos="83.25" lane="-15.0.00_0" slope="0.00"/>
        <vehicle id="3" x="88.47" y="86.37" angle="179.99" type="DEFAULT_VEHTYPE" speed="14.33" pos="33.91" lane="-24.0.00_0" slope="0.00"/>
        <vehicle id="4" x="2.08" y="67.95" angle="0.00" type="DEFAULT_VEHTYPE" speed="13.75" pos="56.79" lane="15.0.00_0" slope="0.00"/>
        <vehicle id="5" x="92.47" y="67.85" angle="359.99" type="DEFAULT_VEHTYPE" speed="11.01" pos="56.55" lane="24.0.00_0" slope="0.00"/>
        <vehicle id="6" x="151.06" y="195.18" angle="90.03" type="DEFAULT_VEHTYPE" speed="12.82" pos="49.58" lane="-4.0.00_0" slope="0.00"/>
        <vehicle id="7" x="88.45" y="220.29" angle="179.99" type="DEFAULT_VEHTYPE" speed="11.25" pos="40.16" lane="-22.0.00_0" slope="0.00"/>
        <vehicle id="8" x="-1.97" y="313.85" angle="180.00" type="DEFAULT_VEHTYPE" speed="7.60" pos="4.80" lane="-15.0.00_0" slope="0.00"/>
        <vehicle id="9" x="308.38" y="2.00" angle="270.00" type="DEFAULT_VEHTYPE" speed="6.61" pos="17.40" lane="6.0.00_0" slope="0.00"/>
    </timestep>
    <timestep time="13.00">
        <vehicle id="0" x="396.37" y="154.44" angle="0.00" type="DEFAULT_VEHTYPE" speed="13.53" pos="144.37" lane="-8.0.00_0" slope="0.00"/>
        <vehicle id="1" x="217.44" y="326.65" angle="90.00" type="DEFAULT_VEHTYPE" speed="11.80" pos="49.30" lane="1.0.00_0" slope="0.00"/>
        <vehicle id="10" x="182.54" y="326.65" angle="90.00" type="DEFAULT_VEHTYPE" speed="5.10" pos="14.40" lane="1.0.00_0" slope="0.00"/>
        <vehicle id="11" x="338.86" y="154.73" angle="0.03" type="DEFAULT_VEHTYPE" speed="4.55" pos="11.77" lane="18.0.00_0" slope="0.00"/>
        <vehicle id="12" x="2.07" y="17.73" angle="0.00" type="DEFAULT_VEHTYPE" speed="1.47" pos="6.57" lane="15.0.00_0" slope="0.00"/>
        <vehicle id="13" x="320.59" y="330.62" angle="270.00" type="DEFAULT_VEHTYPE" speed="0.00" pos="5.10" lane="-1.0.00_0" slope="0.00"/>
        <vehicle id="2" x="-1.99" y="221.61" angle="180.00" type="DEFAULT_VEHTYPE" speed="13.79" pos="97.04" lane="-15.0.00_0" slope="0.00"/>
        <vehicle id="3" x="88.47" y="72.08" angle="179.99" type="DEFAULT_VEHTYPE" speed="14.29" pos="48.20" lane="-24.0.00_0" slope="0.00"/>
        <vehicle id="4" x="2.08" y="82.08" angle="0.00" type="DEFAULT_VEHTYPE" speed="14.13" pos="70.92" lane="15.0.00_0" slope="0.00"/>
        <vehicle id="5" x="92.47" y="78.34" angle="359.99" type="DEFAULT_VEHTYPE" speed="10.49" pos="67.04" lane="24.0.00_0" slope="0.00"/>
        <vehicle id="6" x="164.65" y="195.17" angle="90.03" type="DEFAULT_VEHTYPE" speed="13.59" pos="63.18" lane="-4.0.00_0" slope="0.00"/>
        <vehicle id="7" x="88.45" y="208.78" angle="179.99" type="DEFAULT_VEHTYPE" speed="11.51" pos="51.67" lane="-22.0.00_0" slope="0.00"/>
        <vehicle id="8" x="-1.98" y="303.89" angle="180.11" type="DEFAULT_VEHTYPE" speed="9.96" pos="14.76" lane="-15.0.00_0" slope="0.00"/>
        <vehicle id="9" x="299.34" y="2.00" angle="270.00" type="DEFAULT_VEHTYPE" speed="9.04" pos="26.44" lane="6.0.00_0" slope="0.00"/>
    </timestep>
    <timestep time="14.00">
        <vehicle id="0" x="396.36" y="168.91" angle="0.00" type="DEFAULT_VEHTYPE" speed="14.47" pos="158.84" lane="-8.0.00_0" slope="0.00"/>
        <vehicle id="1" x="229.70" y="326.65" angle="90.00" type="DEFAULT_VEHTYPE" speed="12.26" pos="61.56" lane="1.0.00_0" slope="0.00"/>
        <vehicle id="10" x="189.69" y="326.65" angle="90.00" type="DEFAULT_VEHTYPE" speed="7.14" pos="21.55" lane="1.0.00_0" slope="0.00"/>
        <vehicle id="11" x="338.86" y="161.10" angle="0.03" type="DEFAULT_VEHTYPE" speed="6.38" pos="18.15" lane="18.0.00_0" slope="0.00"/>
        <vehicle id="12" x="2.07" y="21.19" angle="0.00" type="DEFAULT_VEHTYPE" speed="3.45" pos="10.03" lane="15.0.00_0" slope="0.00"/>
        <vehicle id="13" x="318.86" y="330.63" angle="270.06" type="DEFAULT_VEHTYPE" speed="1.73" pos="6.83" lane="-1.0.00_0" slope="0.00"/>
        <vehicle id="14" x="88.43" y="312.84" angle="179.98" type="DEFAULT_VEHTYPE" speed="0.00" pos="5.10" lane="-21.0.00_0" slope="0.00"/>
        <vehicle id="2" x="-1.98" y="207.96" angle="179.90" type="DEFAULT_VEHTYPE" speed="13.65" pos="110.69" lane="-15.0.00_0" slope="0.00"/>
        <vehicle id="3" x="88.47" y="58.17" angle="179.99" type="DEFAULT_VEHTYPE" speed="13.91" pos="62.11" lane="-24.0.00_0" slope="0.00"/>
        <vehicle id="4" x="2.08" y="95.15" angle="0.00" type="DEFAULT_VEHTYPE" speed="13.07" pos="83.99" lane="15.0.00_0" slope="0.00"/>
        <vehicle id="5" x="92.47" y="89.88" angle="359.99" type="DEFAULT_VEHTYPE" speed="11.54" pos="78.58" lane="24.0.00_0" slope="0.00"/>
        <vehicle id="6" x="177.96" y="195.16" angle="90.03" type="DEFAULT_VEHTYPE" speed="13.30" pos="76.48" lane="-4.0.00_0" slope="0.00"/>
        <vehicle id="7" x="88.45" y="197.30" angle="180.00" type="DEFAULT_VEHTYPE" speed="11.48" pos="11.47" lane=":156_0_0" slope="0.00"/>
        <vehicle id="8" x="-1.98" y="291.68" angle="180.00" type="DEFAULT_VEHTYPE" speed="12.20" pos="26.97" lane="-15.0.00_0" slope="0.00"/>
        <vehicle id="9" x="287.84" y="2.00" angle="270.00" type="DEFAULT_VEHTYPE" speed="11.50" pos="37.94" lane="6.0.00_0" slope="0.00"/>
    </timestep>
    <timestep time="15.00">
        <vehicle id="0" x="396.36" y="182.81" angle="0.00" type="DEFAULT_VEHTYPE" speed="13.90" pos="172.74" lane="-8.0.00_0" slope="0.00"/>
        <vehicle id="1" x="242.15" y="326.65" angle="90.00" type="DEFAULT_VEHTYPE" speed="12.45" pos="74.01" lane="1.0.00_0" slope="0.00"/>
        <vehicle id="10" x="198.46" y="326.65" angle="90.00" type="DEFAULT_VEHTYPE" speed="8.77" pos="30.31" lane="1.0.00_0" slope="0.00"/>
        <vehicle id="11" x="338.86" y="169.59" angle="0.03" type="DEFAULT_VEHTYPE" speed="8.49" pos="26.64" lane="18.0.00_0" slope="0.00"/>
        <vehicle id="12" x="2.07" y="27.07" angle="0.00" type="DEFAULT_VEHTYPE" speed="5.88" pos="15.91" lane="15.0.00_0" slope="0.00"/>
        <vehicle id="13" x="315.63" y="330.63" angle="270.11" type="DEFAULT_VEHTYPE" speed="3.23" pos="10.06" lane="-1.0.00_0" slope="0.00"/>
        <vehicle id="14" x="88.43" y="310.48" angle="179.98" type="DEFAULT_VEHTYPE" speed="2.36" pos="7.46" lane="-21.0.00_0" slope="0.00"/>
        <vehicle id="15" x="-1.04" y="5.80" angle="169.63" type="DEFAULT_VEHTYPE" speed="0.00" pos="5.10" lane="20.0.00_0" slope="0.00"/>
        <vehicle id="2" x="-1.98" y="194.32" angle="180.00" type="DEFAULT_VEHTYPE" speed="13.63" pos="124.33" lane="-15.0.00_0" slope="0.00"/>
        <vehicle id="3" x="88.47" y="43.25" angle="179.99" type="DEFAULT_VEHTYPE" speed="14.92" pos="77.03" lane="-24.0.00_0" slope="0.00"/>
        <vehicle id="4" x="2.07" y="108.21" angle="0.00" type="DEFAULT_VEHTYPE" speed="13.06" pos="97.05" lane="15.0.00_0" slope="0.00"/>
        <vehicle id="5" x="92.46" y="100.87" angle="359.99" type="DEFAULT_VEHTYPE" speed="10.99" pos="89.56" lane="24.0.00_0" slope="0.00"/>
        <vehicle id="6" x="192.48" y="195.16" angle="90.03" type="DEFAULT_VEHTYPE" speed="14.53" pos="91.00" lane="-4.0.00_0" slope="0.00"/>
        <vehicle id="7" x="88.45" y="185.80" angle="180.00" type="DEFAULT_VEHTYPE" speed="11.50" pos="0.97" lane="-23.0.00_0" slope="0.00"/>
        <vehicle id="8" x="-1.99" y="279.03" angle="180.10" type="DEFAULT_VEHTYPE" speed="12.65" pos="39.62" lane="-15.0.00_0" slope="0.00"/>
        <vehicle id="9" x="277.14" y="2.00" angle="270.00" type="DEFAULT_VEHTYPE" speed="10.70" pos="48.64" lane="6.0.00_0" slope="0.00"/>
    </timestep>
    <timestep time="16.00">
        <vehicle id="0" x="396.36" y="197.23" angle="0.00" type="DEFAULT_VEHTYPE" speed="14.41" pos="187.16" lane="-8.0.00_0" slope="0.00"/>
        <vehicle id="1" x="254.44" y="326.64" angle="90.00" type="DEFAULT_VEHTYPE" speed="12.28" pos="86.29" lane="1.0.00_0" slope="0.00"/>
        <vehicle id="10" x="208.75" y="326.65" angle="90.00" type="DEFAULT_VEHTYPE" speed="10.30" pos="40.61" lane="1.0.00_0" slope="0.00"/>
        <vehicle id="11" x="338.87" y="180.55" angle="0.03" type="DEFAULT_VEHTYPE" speed="10.96" pos="37.60" lane="18.0.00_0" slope="0.00"/>
        <vehicle id="12" x="2.07" y="34.90" angle="0.00" type="DEFAULT_VEHTYPE" speed="7.83" pos="23.74" lane="15.0.00_0" slope="0.00"/>
        <vehicle id="13" x="309.81" y="330.63" angle="270.00" type="DEFAULT_VEHTYPE" speed="5.82" pos="15.88" lane="-1.0.00_0" slope="0.00"/>
        <vehicle id="14" x="88.43" y="306.76" angle="179.98" type="DEFAULT_VEHTYPE" speed="3.72" pos="11.19" lane="-21.0.00_0" slope="0.00"/>
        <vehicle id="15" x="-0.46" y="4.53" angle="164.02" type="DEFAULT_VEHTYPE" speed="1.40" pos="6.50" lane="20.0.00_0" slope="0.00"/>
        <vehicle id="2" x="-1.97" y="181.39" angle="180.00" type="DEFAULT_VEHTYPE" speed="12.93" pos="137.26" lane="-15.0.00_0" slope="0.00"/>
        <vehicle id="3" x="88.48" y="29.24" angle="179.99" type="DEFAULT_VEHTYPE" speed="14.01" pos="91.05" lane="-24.0.00_0" slope="0.00"/>
        <vehicle id="4" x="2.06" y="121.88" angle="359.98" type="DEFAULT_VEHTYPE" speed="13.67" pos="110.72" lane="15.0.00_0" slope="0.00"/>
        <vehicle id="5" x="92.46" y="111.22" angle="359.99" type="DEFAULT_VEHTYPE" speed="10.35" pos="99.92" lane="24.0.00_0" slope="0.00"/>
        <vehicle id="6" x="206.07" y="195.15" angle="90.03" type="DEFAULT_VEHTYPE" speed="13.59" pos="104.59" lane="-4.0.00_0" slope="0.00"/>
        <vehicle id="7" x="88.45" y="174.43" angle="179.99" type="DEFAULT_VEHTYPE" speed="11.37" pos="12.34" lane="-23.0.00_0" slope="0.00"/>
        <vehicle id="8" x="-1.99" y="266.47" angle="180.00" type="DEFAULT_VEHTYPE" speed="12.56" pos="52.18" lane="-15.0.00_0" slope="0.00"/>
        <vehicle id="9" x="265.49" y="2.00" angle="270.00" type="DEFAULT_VEHTYPE" speed="11.65" pos="60.29" lane="6.0.00_0" slope="0.00"/>
    </timestep>
    <timestep time="17.00">
        <vehicle id="0" x="396.35" y="210.92" angle="0.00" type="DEFAULT_VEHTYPE" speed="13.69" pos="200.85" lane="-8.0.00_0" slope="0.00"/>
        <vehicle id="1" x="267.26" y="326.64" angle="90.00" type="DEFAULT_VEHTYPE" speed="12.82" pos="99.12" lane="1.0.00_0" slope="0.00"/>
        <vehicle id="10" x="221.41" y="326.65" angle="90.00" type="DEFAULT_VEHTYPE" speed="12.66" pos="53.27" lane="1.0.00_0" slope="0.00"/>
        <vehicle id="11" x="338.31" y="189.14" angle="353.61" type="DEFAULT_VEHTYPE" speed="8.63" pos="4.24" lane=":139_3_0" slope="0.00"/>
        <vehicle id="12" x="2.07" y="44.41" angle="0.00" type="DEFAULT_VEHTYPE" speed="9.51" pos="33.25" lane="15.0.00_0" slope="0.00"/>
        <vehicle id="13" x="301.59" y="330.63" angle="270.00" type="DEFAULT_VEHTYPE" speed="8.22" pos="24.10" lane="-1.0.00_0" slope="0.00"/>
        <vehicle id="14" x="88.43" y="301.41" angle="179.98" type="DEFAULT_VEHTYPE" speed="5.34" pos="16.53" lane="-21.0.00_0" slope="0.00"/>
        <vehicle id="15" x="1.44" y="1.68" angle="149.22" type="DEFAULT_VEHTYPE" speed="3.44" pos="9.94" lane="20.0.00_0" slope="0.00"/>
        <vehicle id="16" x="88.43" y="312.84" angle="179.98" type="DEFAULT_VEHTYPE" speed="0.00" pos="5.10" lane="-21.0.00_0" slope="0.00"/>
        <vehicle id="17" x="88.44" y="255.36" angle="179.99" type="DEFAULT_VEHTYPE" speed="0.00" pos="5.10" lane="-22.0.00_0" slope="0.00"/>
        <vehicle id="2" x="-1.96" y="168.61" angle="179.91" type="DEFAULT_VEHTYPE" speed="12.78" pos="150.04" lane="-15.0.00_0" slope="0.00"/>
        <vehicle id="3" x="88.48" y="18.81" angle="179.99" type="DEFAULT_VEHTYPE" speed="10.44" pos="101.48" lane="-24.0.00_0" slope="0.00"/>
        <vehicle id="4" x="2.06" y="135.36" angle="359.97" type="DEFAULT_VEHTYPE" speed="13.48" pos="124.20" lane="15.0.00_0" slope="0.00"/>
        <vehicle id="5" x="92.46" y="121.90" angle="359.99" type="DEFAULT_VEHTYPE" speed="10.69" pos="1.62" lane=":128_5_0" slope="0.00"/>
        <vehicle id="6" x="219.98" y="195.14" angle="90.03" type="DEFAULT_VEHTYPE" speed="13.91" pos="118.50" lane="-4.0.00_0" slope="0.00"/>
        <vehicle id="7" x="88.46" y="163.14" angle="179.99" type="DEFAULT_VEHTYPE" speed="11.29" pos="23.63" lane="-23.0.00_0" slope="0.00"/>
        <vehicle id="8" x="-1.99" y="254.64" angle="180.02" type="DEFAULT_VEHTYPE" speed="11.84" pos="64.01" lane="-15.0.00_0" slope="0.00"/>
        <vehicle id="9" x="253.67" y="2.00" angle="270.00" type="DEFAULT_VEHTYPE" speed="11.82" pos="72.11" lane="6.0.00_0" slope="0.00"/>
    </timestep>
    <timestep time="18.00">
        <vehicle id="0" x="396.35" y="225.38" angle="0.00" type="DEFAULT_VEHTYPE" speed="14.46" pos="215.31" lane="-8.0.00_0" slope="0.00"/>
        <vehicle id="1" x="279.35" y="326.64" angle="90.00" type="DEFAULT_VEHTYPE" speed="12.08" pos="111.20" lane="1.0.00_0" slope="0.00"/>
        <vehicle id="10" x="236.31" y="326.65" angle="90.00" type="DEFAULT_VEHTYPE" speed="14.90" pos="68.17" lane="1.0.00_0" slope="0.00"/>
        <vehicle id="11" x="334.02" y="196.56" angle="320.40" type="DEFAULT_VEHTYPE" speed="8.93" pos="4.51" lane=":139_6_0" slope="0.00"/>
        <vehicle id="12" x="2.08" y="56.20" angle="0.00" type="DEFAULT_VEHTYPE" speed="11.79" pos="45.04" lane="15.0.00_0" slope="0.00"/>
        <vehicle id="13" x="291.08" y="330.64" angle="270.00" type="DEFAULT_VEHTYPE" speed="10.51" pos="34.61" lane="-1.0.00_0" slope="0.00"/>
        <vehicle id="14" x="88.44" y="294.35" angle="179.98" type="DEFAULT_VEHTYPE" speed="7.07" pos="23.60" lane="-21.0.00_0" slope="0.00"/>
        <vehicle id="15" x="5.58" y="-1.16" angle="124.24" type="DEFAULT_VEHTYPE" speed="5.09" pos="15.03" lane="20.0.00_0" slope="0.00"/>
        <vehicle id="16" x="88.43" y="311.11" angle="179.98" type="DEFAULT_VEHTYPE" speed="1.73" pos="6.83" lane="-21.0.00_0" slope="0.00"/>
        <vehicle id="17" x="88.44" y="253.85" angle="179.99" type="DEFAULT_VEHTYPE" speed="1.51" pos="6.61" lane="-22.0.00_0" slope="0.00"/>
        <vehicle id="18" x="173.24" y="326.65" angle="90.00" type="DEFAULT_VEHTYPE" speed="0.00" pos="5.10" lane="1.0.00_0" slope="0.00"/>
        <vehicle id="2" x="-1.95" y="155.33" angle="179.94" type="DEFAULT_VEHTYPE" speed="13.28" pos="163.32" lane="-15.0.00_0" slope="0.00"/>
        <vehicle id="3" x="88.48" y="12.87" angle="179.99" type="DEFAULT_VEHTYPE" speed="5.94" pos="107.42" lane="-24.0.00_0" slope="0.00"/>
        <vehicle id="4" x="2.05" y="149.63" angle="0.00" type="DEFAULT_VEHTYPE" speed="14.27" pos="138.47" lane="15.0.00_0" slope="0.00"/>
        <vehicle id="5" x="92.46" y="133.44" angle="0.00" type="DEFAULT_VEHTYPE" speed="11.53" pos="13.15" lane=":128_5_0" slope="0.00"/>
        <vehicle id="6" x="234.10" y="195.13" angle="90.03" type="DEFAULT_VEHTYPE" speed="14.12" pos="132.62" lane="-4.0.00_0" slope="0.00"/>
        <vehicle id="7" x="88.46" y="151.22" angle="179.99" type="DEFAULT_VEHTYPE" speed="11.92" pos="35.55" lane="-23.0.00_0" slope="0.00"/>
        <vehicle id="8" x="-2.00" y="242.61" angle="180.00" type="DEFAULT_VEHTYPE" speed="12.03" pos="76.04" lane="-15.0.00_0" slope="0.00"/>
        <vehicle id="9" x="242.32" y="2.01" angle="270.11" type="DEFAULT_VEHTYPE" speed="11.35" pos="83.46" lane="6.0.00_0" slope="0.00"/>
    </timestep>
    <timestep time="19.00">
        <vehicle id="0" x="396.35" y="240.05" angle="0.00" type="DEFAULT_VEHTYPE" speed="14.67" pos="229.98" lane="-8.0.00_0" slope="0.00"/>
        <vehicle id="1" x="291.49" y="326.64" angle="90.00" type="DEFAULT_VEHTYPE" speed="12.14" pos="123.34" lane="1.0.00_0" slope="0.00"/>
        <vehicle id="10" x="250.31" y="326.64" angle="90.00" type="DEFAULT_VEHTYPE" speed="14.00" pos="82.16" lane="1.0.00_0" slope="0.00"/>
        <vehicle id="11" x="324.54" y="199.09" angle="276.68" type="DEFAULT_VEHTYPE" speed="10.04" pos="1.16" lane="4.0.00_0" slope="0.00"/>
        <vehicle id="12" x="2.08" y="69.78" angle="0.00" type="DEFAULT_VEHTYPE" speed="13.58" pos="58.62" lane="15.0.00_0" slope="0.00"/>
        <vehicle id="13" x="278.16" y="330.64" angle="270.00" type="DEFAULT_VEHTYPE" speed="12.93" pos="47.53" lane="-1.0.00_0" slope="0.00"/>
        <vehicle id="14" x="88.44" y="285.01" angle="179.98" type="DEFAULT_VEHTYPE" speed="9.34" pos="32.94" lane="-21.0.00_0" slope="0.00"/>
        <vehicle id="15" x="12.72" y="-1.93" angle="92.13" type="DEFAULT_VEHTYPE" speed="7.23" pos="2.50" lane="-5.0.00_0" slope="0.00"/>
        <vehicle id="16" x="88.43" y="307.32" angle="179.98" type="DEFAULT_VEHTYPE" speed="3.79" pos="10.62" lane="-21.0.00_0" slope="0.00"/>
        <vehicle id="17" x="88.44" y="250.19" angle="179.99" type="DEFAULT_VEHTYPE" speed="3.66" pos="10.27" lane="-22.0.00_0" slope="0.00"/>
        <vehicle id="18" x="175.47" y="326.65" angle="90.00" type="DEFAULT_VEHTYPE" speed="2.23" pos="7.33" lane="1.0.00_0" slope="0.00"/>
        <vehicle id="19" x="334.83" y="114.35" angle="180.03" type="DEFAULT_VEHTYPE" speed="0.00" pos="5.10" lane="-19.0.00_0" slope="0.00"/>
        <vehicle id="2" x="-1.95" y="141.37" angle="180.00" type="DEFAULT_VEHTYPE" speed="13.97" pos="177.28" lane="-15.0.00_0" slope="0.00"/>
        <vehicle id="3" x="86.96" y="5.60" angle="196.37" type="DEFAULT_VEHTYPE" speed="7.56" pos="6.00" lane=":195_0_0" slope="0.00"/>