<?xml version="1.0" encoding="UTF-8"?>

<!-- generated on Wed Aug 14 12:03:57 2019 by Eclipse SUMO Version 1.2.0
<configuration xmlns:xsi="http://www.w3.org/2001/XMLSchema-instance" xsi:noNamespaceSchemaLocation="http://sumo.dlr.de/xsd/sumoConfiguration.xsd">

    <input>
        <net-file value="Town01.net.xml"/>
        <route-files value="trips.trips.xml"/>
    </input>

    <output>
        <netstate-dump value="test.log"/>
        <fcd-output value="Town02_Car150.log"/>
    </output>

    <time>
        <begin value="0"/>
        <end value="10000"/>
    </time>

</configuration>
-->

<fcd-export xmlns:xsi="http://www.w3.org/2001/XMLSchema-instance" xsi:noNamespaceSchemaLocation="http://sumo.dlr.de/xsd/fcd_file.xsd">
    <timestep time="0.00">
        <vehicle id="0" x="2.07" y="16.26" angle="0.00" type="DEFAULT_VEHTYPE" speed="0.00" pos="5.10" lane="15.0.00_0" slope="0.00"/>
    </timestep>
    <timestep time="1.00">
        <vehicle id="0" x="2.07" y="17.69" angle="0.00" type="DEFAULT_VEHTYPE" speed="1.43" pos="6.53" lane="15.0.00_0" slope="0.00"/>
        <vehicle id="1" x="352.89" y="-2.00" angle="90.00" type="DEFAULT_VEHTYPE" speed="0.00" pos="5.10" lane="-7.0.00_0" slope="0.00"/>
    </timestep>
    <timestep time="2.00">
        <vehicle id="0" x="2.07" y="21.73" angle="0.00" type="DEFAULT_VEHTYPE" speed="4.03" pos="10.57" lane="15.0.00_0" slope="0.00"/>
        <vehicle id="1" x="354.87" y="-2.00" angle="90.00" type="DEFAULT_VEHTYPE" speed="1.98" pos="7.08" lane="-7.0.00_0" slope="0.00"/>
        <vehicle id="2" x="338.93" y="287.29" angle="0.03" type="DEFAULT_VEHTYPE" speed="0.00" pos="5.10" lane="16.0.00_0" slope="0.00"/>
    </timestep>
    <timestep time="3.00">
        <vehicle id="0" x="2.07" y="27.93" angle="0.00" type="DEFAULT_VEHTYPE" speed="6.21" pos="16.77" lane="15.0.00_0" slope="0.00"/>
        <vehicle id="1" x="358.54" y="-2.00" angle="90.00" type="DEFAULT_VEHTYPE" speed="3.67" pos="10.75" lane="-7.0.00_0" slope="0.00"/>
        <vehicle id="2" x="338.93" y="289.31" angle="0.03" type="DEFAULT_VEHTYPE" speed="2.02" pos="7.12" lane="16.0.00_0" slope="0.00"/>
        <vehicle id="3" x="172.33" y="269.12" angle="89.99" type="DEFAULT_VEHTYPE" speed="0.00" pos="5.10" lane="-10.0.00_0" slope="0.00"/>
    </timestep>
    <timestep time="4.00">
        <vehicle id="0" x="2.07" y="36.57" angle="0.00" type="DEFAULT_VEHTYPE" speed="8.63" pos="25.41" lane="15.0.00_0" slope="0.00"/>
        <vehicle id="1" x="363.53" y="-2.00" angle="90.00" type="DEFAULT_VEHTYPE" speed="5.00" pos="15.74" lane="-7.0.00_0" slope="0.00"/>
        <vehicle id="2" x="338.94" y="293.16" angle="0.03" type="DEFAULT_VEHTYPE" speed="3.85" pos="10.97" lane="16.0.00_0" slope="0.00"/>
        <vehicle id="3" x="174.21" y="269.12" angle="89.99" type="DEFAULT_VEHTYPE" speed="1.88" pos="6.98" lane="-10.0.00_0" slope="0.00"/>
        <vehicle id="4" x="378.88" y="2.00" angle="270.00" type="DEFAULT_VEHTYPE" speed="0.00" pos="5.10" lane="7.0.00_0" slope="0.00"/>
    </timestep>
    <timestep time="5.00">
        <vehicle id="0" x="2.07" y="47.23" angle="0.00" type="DEFAULT_VEHTYPE" speed="10.67" pos="36.07" lane="15.0.00_0" slope="0.00"/>
        <vehicle id="1" x="371.04" y="-2.00" angle="90.00" type="DEFAULT_VEHTYPE" speed="7.51" pos="23.25" lane="-7.0.00_0" slope="0.00"/>
        <vehicle id="2" x="338.94" y="299.36" angle="0.03" type="DEFAULT_VEHTYPE" speed="6.19" pos="17.17" lane="16.0.00_0" slope="0.00"/>
        <vehicle id="3" x="178.03" y="269.12" angle="89.99" type="DEFAULT_VEHTYPE" speed="3.82" pos="10.80" lane="-10.0.00_0" slope="0.00"/>
        <vehicle id="4" x="376.37" y="2.00" angle="270.00" type="DEFAULT_VEHTYPE" speed="2.51" pos="7.61" lane="7.0.00_0" slope="0.00"/>
        <vehicle id="5" x="338.93" y="287.29" angle="0.03" type="DEFAULT_VEHTYPE" speed="0.00" pos="5.10" lane="16.0.00_0" slope="0.00"/>
    </timestep>
    <timestep time="6.00">
        <vehicle id="0" x="2.08" y="60.32" angle="0.00" type="DEFAULT_VEHTYPE" speed="13.09" pos="49.16" lane="15.0.00_0" slope="0.00"/>
        <vehicle id="1" x="380.62" y="-2.00" angle="90.00" type="DEFAULT_VEHTYPE" speed="9.58" pos="32.83" lane="-7.0.00_0" slope="0.00"/>
        <vehicle id="2" x="338.94" y="308.07" angle="0.03" type="DEFAULT_VEHTYPE" speed="8.71" pos="25.88" lane="16.0.00_0" slope="0.00"/>
        <vehicle id="3" x="184.28" y="269.12" angle="89.99" type="DEFAULT_VEHTYPE" speed="6.25" pos="17.05" lane="-10.0.00_0" slope="0.00"/>
        <vehicle id="4" x="371.75" y="2.00" angle="270.00" type="DEFAULT_VEHTYPE" speed="4.62" pos="12.23" lane="7.0.00_0" slope="0.00"/>
        <vehicle id="5" x="338.93" y="288.98" angle="0.03" type="DEFAULT_VEHTYPE" speed="1.69" pos="6.79" lane="16.0.00_0" slope="0.00"/>
        <vehicle id="6" x="-1.97" y="313.55" angle="180.00" type="DEFAULT_VEHTYPE" speed="0.00" pos="5.10" lane="-15.0.00_0" slope="0.00"/>
    </timestep>
    <timestep time="7.00">
        <vehicle id="0" x="2.08" y="73.92" angle="0.00" type="DEFAULT_VEHTYPE" speed="13.60" pos="62.76" lane="15.0.00_0" slope="0.00"/>
        <vehicle id="1" x="391.33" y="-0.07" angle="69.06" type="DEFAULT_VEHTYPE" speed="11.09" pos="7.40" lane="14.0.00_0" slope="0.00"/>
        <vehicle id="2" x="338.95" y="314.89" angle="0.03" type="DEFAULT_VEHTYPE" speed="6.82" pos="32.70" lane="16.0.00_0" slope="0.00"/>
        <vehicle id="3" x="192.32" y="269.12" angle="89.99" type="DEFAULT_VEHTYPE" speed="8.04" pos="25.09" lane="-10.0.00_0" slope="0.00"/>
        <vehicle id="4" x="365.79" y="2.00" angle="270.00" type="DEFAULT_VEHTYPE" speed="5.96" pos="18.19" lane="7.0.00_0" slope="0.00"/>
        <vehicle id="5" x="338.94" y="292.38" angle="0.03" type="DEFAULT_VEHTYPE" speed="3.40" pos="10.19" lane="16.0.00_0" slope="0.00"/>
        <vehicle id="6" x="-1.97" y="311.00" angle="180.00" type="DEFAULT_VEHTYPE" speed="2.55" pos="7.65" lane="-15.0.00_0" slope="0.00"/>
        <vehicle id="7" x="74.37" y="2.03" angle="270.03" type="DEFAULT_VEHTYPE" speed="0.00" pos="5.10" lane="5.0.00_0" slope="0.00"/>
    </timestep>
    <timestep time="8.00">
        <vehicle id="0" x="2.08" y="87.40" angle="0.00" type="DEFAULT_VEHTYPE" speed="13.48" pos="76.24" lane="15.0.00_0" slope="0.00"/>
        <vehicle id="1" x="396.41" y="10.50" angle="6.68" type="DEFAULT_VEHTYPE" speed="12.46" pos="0.43" lane="-8.0.00_0" slope="0.00"/>
        <vehicle id="2" x="338.15" y="323.27" angle="351.68" type="DEFAULT_VEHTYPE" speed="8.44" pos="5.52" lane=":43_3_0" slope="0.00"/>
        <vehicle id="3" x="202.17" y="269.12" angle="89.99" type="DEFAULT_VEHTYPE" speed="9.85" pos="34.93" lane="-10.0.00_0" slope="0.00"/>
        <vehicle id="4" x="358.20" y="2.00" angle="270.00" type="DEFAULT_VEHTYPE" speed="7.59" pos="25.78" lane="7.0.00_0" slope="0.00"/>
        <vehicle id="5" x="338.94" y="298.26" angle="0.03" type="DEFAULT_VEHTYPE" speed="5.88" pos="16.07" lane="16.0.00_0" slope="0.00"/>
        <vehicle id="6" x="-1.97" y="305.92" angle="180.05" type="DEFAULT_VEHTYPE" speed="5.08" pos="12.73" lane="-15.0.00_0" slope="0.00"/>
        <vehicle id="7" x="73.01" y="2.03" angle="270.03" type="DEFAULT_VEHTYPE" speed="1.36" pos="6.46" lane="5.0.00_0" slope="0.00"/>
        <vehicle id="8" x="6.04" y="330.15" angle="264.42" type="DEFAULT_VEHTYPE" speed="0.00" pos="5.10" lane="13.0.00_0" slope="0.00"/>
    </timestep>
    <timestep time="9.00">
        <vehicle id="0" x="2.07" y="101.50" angle="359.94" type="DEFAULT_VEHTYPE" speed="14.10" pos="90.34" lane="15.0.00_0" slope="0.00"/>
        <vehicle id="1" x="396.41" y="22.25" angle="359.98" type="DEFAULT_VEHTYPE" speed="11.75" pos="12.18" lane="-8.0.00_0" slope="0.00"/>
        <vehicle id="2" x="331.93" y="329.57" angle="303.93" type="DEFAULT_VEHTYPE" speed="9.15" pos="14.67" lane=":43_3_0" slope="0.00"/>
        <vehicle id="3" x="213.91" y="269.13" angle="89.99" type="DEFAULT_VEHTYPE" speed="11.74" pos="46.68" lane="-10.0.00_0" slope="0.00"/>
        <vehicle id="4" x="349.24" y="2.00" angle="270.00" type="DEFAULT_VEHTYPE" speed="8.96" pos="34.74" lane="7.0.00_0" slope="0.00"/>
        <vehicle id="5" x="338.94" y="305.73" angle="0.03" type="DEFAULT_VEHTYPE" speed="7.48" pos="23.54" lane="16.0.00_0" slope="0.00"/>
        <vehicle id="6" x="-1.98" y="298.84" angle="180.00" type="DEFAULT_VEHTYPE" speed="7.07" pos="19.81" lane="-15.0.00_0" slope="0.00"/>
        <vehicle id="7" x="70.15" y="2.04" angle="270.03" type="DEFAULT_VEHTYPE" speed="2.86" pos="9.32" lane="5.0.00_0" slope="0.00"/>
        <vehicle id="8" x="3.87" y="329.28" angle="254.58" type="DEFAULT_VEHTYPE" speed="2.34" pos="7.44" lane="13.0.00_0" slope="0.00"/>
        <vehicle id="9" x="379.55" y="330.59" angle="270.03" type="DEFAULT_VEHTYPE" speed="0.00" pos="5.10" lane="-0.0.00_0" slope="0.00"/>
    </timestep>
    <timestep time="10.00">
        <vehicle id="0" x="2.07" y="114.98" angle="0.00" type="DEFAULT_VEHTYPE" speed="13.47" pos="103.82" lane="15.0.00_0" slope="0.00"/>
        <vehicle id="1" x="396.40" y="35.19" angle="0.00" type="DEFAULT_VEHTYPE" speed="12.93" pos="25.12" lane="-8.0.00_0" slope="0.00"/>
        <vehicle id="10" x="173.24" y="326.65" angle="90.00" type="DEFAULT_VEHTYPE" speed="0.00" pos="5.10" lane="1.0.00_0" slope="0.00"/>
        <vehicle id="2" x="322.29" y="330.62" angle="272.52" type="DEFAULT_VEHTYPE" speed="9.75" pos="3.40" lane="-1.0.00_0" slope="0.00"/>
        <vehicle id="3" x="228.16" y="269.13" angle="89.99" type="DEFAULT_VEHTYPE" speed="14.24" pos="60.92" lane="-10.0.00_0" slope="0.00"/>
        <vehicle id="4" x="338.17" y="2.00" angle="270.00" type="DEFAULT_VEHTYPE" speed="11.06" pos="9.62" lane=":60_3_0" slope="0.00"/>
        <vehicle id="5" x="338.95" y="313.94" angle="0.03" type="DEFAULT_VEHTYPE" speed="8.21" pos="31.75" lane="16.0.00_0" slope="0.00"/>
        <vehicle id="6" x="-1.98" y="289.59" angle="180.00" type="DEFAULT_VEHTYPE" speed="9.25" pos="29.06" lane="-15.0.00_0" slope="0.00"/>
        <vehicle id="7" x="65.83" y="2.04" angle="270.03" type="DEFAULT_VEHTYPE" speed="4.32" pos="13.64" lane="5.0.00_0" slope="0.00"/>
        <vehicle id="8" x="0.85" y="327.05" angle="236.64" type="DEFAULT_VEHTYPE" speed="3.78" pos="11.22" lane="13.0.00_0" slope="0.00"/>
        <vehicle id="9" x="377.97" y="330.59" angle="270.03" type="DEFAULT_VEHTYPE" speed="1.58" pos="6.68" lane="-0.0.00_0" slope="0.00"/>
    </timestep>
    <timestep time="11.00">
        <vehicle id="0" x="2.06" y="129.53" angle="0.00" type="DEFAULT_VEHTYPE" speed="14.55" pos="118.37" lane="15.0.00_0" slope="0.00"/>
        <vehicle id="1" x="396.40" y="47.89" angle="359.99" type="DEFAULT_VEHTYPE" speed="12.70" pos="37.82" lane="-8.0.00_0" slope="0.00"/>
        <vehicle id="10" x="175.49" y="326.65" angle="90.00" type="DEFAULT_VEHTYPE" speed="2.25" pos="7.35" lane="1.0.00_0" slope="0.00"/>
        <vehicle id="2" x="310.82" y="330.63" angle="270.00" type="DEFAULT_VEHTYPE" speed="11.48" pos="14.87" lane="-1.0.00_0" slope="0.00"/>
        <vehicle id="3" x="241.91" y="269.13" angle="89.99" type="DEFAULT_VEHTYPE" speed="13.75" pos="74.68" lane="-10.0.00_0" slope="0.00"/>
        <vehicle id="4" x="325.77" y="2.00" angle="270.00" type="DEFAULT_VEHTYPE" speed="12.40" pos="0.01" lane="6.0.00_0" slope="0.00"/>
        <vehicle id="5" x="338.95" y="317.65" angle="0.03" type="DEFAULT_VEHTYPE" speed="3.71" pos="35.46" lane="16.0.00_0" slope="0.00"/>
        <vehicle id="6" x="-1.99" y="277.93" angle="180.11" type="DEFAULT_VEHTYPE" speed="11.66" pos="40.72" lane="-15.0.00_0" slope="0.00"/>
        <vehicle id="7" x="58.96" y="2.04" angle="270.03" type="DEFAULT_VEHTYPE" speed="6.87" pos="20.51" lane="5.0.00_0" slope="0.00"/>
        <vehicle id="8" x="-1.80" y="321.53" angle="202.58" type="DEFAULT_VEHTYPE" speed="6.23" pos="17.45" lane="13.0.00_0" slope="0.00"/>
        <vehicle id="9" x="374.01" y="330.60" angle="270.03" type="DEFAULT_VEHTYPE" speed="3.96" pos="10.64" lane="-0.0.00_0" slope="0.00"/>
    </timestep>
    <timestep time="12.00">
        <vehicle id="0" x="2.05" y="143.61" angle="0.00" type="DEFAULT_VEHTYPE" speed="14.08" pos="132.45" lane="15.0.00_0" slope="0.00"/>
        <vehicle id="1" x="396.39" y="60.11" angle="0.00" type="DEFAULT_VEHTYPE" speed="12.22" pos="50.04" lane="-8.0.00_0" slope="0.00"/>
        <vehicle id="10" x="180.21" y="326.65" angle="90.00" type="DEFAULT_VEHTYPE" speed="4.72" pos="12.07" lane="1.0.00_0" slope="0.00"/>
        <vehicle id="12" x="172.33" y="269.12" angle="89.99" type="DEFAULT_VEHTYPE" speed="0.00" pos="5.10" lane="-10.0.00_0" slope="0.00"/>
        <vehicle id="2" x="297.88" y="330.64" angle="270.11" type="DEFAULT_VEHTYPE" speed="12.94" pos="27.81" lane="-1.0.00_0" slope="0.00"/>
        <vehicle id="3" x="256.47" y="269.13" angle="89.99" type="DEFAULT_VEHTYPE" speed="14.56" pos="89.24" lane="-10.0.00_0" slope="0.00"/>
        <vehicle id="4" x="312.39" y="2.00" angle="270.00" type="DEFAULT_VEHTYPE" speed="13.38" pos="13.39" lane="6.0.00_0" slope="0.00"/>
        <vehicle id="5" x="338.95" y="317.68" angle="0.03" type="DEFAULT_VEHTYPE" speed="0.03" pos="35.49" lane="16.0.00_0" slope="0.00"/>
        <vehicle id="6" x="-1.99" y="264.27" angle="180.00" type="DEFAULT_VEHTYPE" speed="13.66" pos="54.38" lane="-15.0.00_0" slope="0.00"/>
        <vehicle id="7" x="50.03" y="2.05" angle="270.03" type="DEFAULT_VEHTYPE" speed="8.93" pos="29.44" lane="5.0.00_0" slope="0.00"/>
        <vehicle id="9" x="368.45" y="330.60" angle="270.03" type="DEFAULT_VEHTYPE" speed="5.57" pos="16.20" lane="-0.0.00_0" slope="0.00"/>
    </timestep>
    <timestep time="13.00">
        <vehicle id="0" x="2.04" y="157.69" angle="359.89" type="DEFAULT_VEHTYPE" speed="14.07" pos="146.53" lane="15.0.00_0" slope="0.00"/>
        <vehicle id="1" x="396.39" y="72.78" angle="0.00" type="DEFAULT_VEHTYPE" speed="12.67" pos="62.71" lane="-8.0.00_0" slope="0.00"/>
        <vehicle id="10" x="186.27" y="326.65" angle="90.00" type="DEFAULT_VEHTYPE" speed="6.06" pos="18.13" lane="1.0.00_0" slope="0.00"/>
        <vehicle id="11" x="173.24" y="326.65" angle="90.00" type="DEFAULT_VEHTYPE" speed="0.00" pos="5.10" lane="1.0.00_0" slope="0.00"/>
        <vehicle id="12" x="174.54" y="269.12" angle="89.99" type="DEFAULT_VEHTYPE" speed="2.21" pos="7.31" lane="-10.0.00_0" slope="0.00"/>
        <vehicle id="13" x="74.34" y="330.65" angle="269.98" type="DEFAULT_VEHTYPE" speed="0.00" pos="5.10" lane="-3.0.00_0" slope="0.00"/>
        <vehicle id="2" x="283.85" y="330.64" angle="270.00" type="DEFAULT_VEHTYPE" speed="14.02" pos="41.84" lane="-1.0.00_0" slope="0.00"/>
        <vehicle id="3" x="270.71" y="269.13" angle="89.99" type="DEFAULT_VEHTYPE" speed="14.23" pos="103.47" lane="-10.0.00_0" slope="0.00"/>
        <vehicle id="4" x="298.32" y="2.00" angle="270.00" type="DEFAULT_VEHTYPE" speed="14.08" pos="27.46" lane="6.0.00_0" slope="0.00"/>
        <vehicle id="5" x="338.95" y="317.70" angle="0.03" type="DEFAULT_VEHTYPE" speed="0.02" pos="35.51" lane="16.0.00_0" slope="0.00"/>
        <vehicle id="6" x="-2.00" y="249.99" angle="180.11" type="DEFAULT_VEHTYPE" speed="14.28" pos="68.66" lane="-15.0.00_0" slope="0.00"/>
        <vehicle id="7" x="38.69" y="2.05" angle="270.03" type="DEFAULT_VEHTYPE" speed="11.34" pos="40.78" lane="5.0.00_0" slope="0.00"/>
        <vehicle id="9" x="360.63" y="330.60" angle="270.03" type="DEFAULT_VEHTYPE" speed="7.82" pos="24.02" lane="-0.0.00_0" slope="0.00"/>
    </timestep>
    <timestep time="14.00">
        <vehicle id="0" x="2.04" y="171.57" angle="0.00" type="DEFAULT_VEHTYPE" speed="13.89" pos="160.41" lane="15.0.00_0" slope="0.00"/>
        <vehicle id="1" x="396.38" y="85.80" angle="0.00" type="DEFAULT_VEHTYPE" speed="13.02" pos="75.73" lane="-8.0.00_0" slope="0.00"/>
        <vehicle id="10" x="193.76" y="326.65" angle="90.00" type="DEFAULT_VEHTYPE" speed="7.48" pos="25.61" lane="1.0.00_0" slope="0.00"/>
        <vehicle id="11" x="174.77" y="326.65" angle="90.00" type="DEFAULT_VEHTYPE" speed="1.53" pos="6.63" lane="1.0.00_0" slope="0.00"/>
        <vehicle id="12" x="178.77" y="269.12" angle="89.99" type="DEFAULT_VEHTYPE" speed="4.23" pos="11.54" lane="-10.0.00_0" slope="0.00"/>
        <vehicle id="13" x="72.45" y="330.65" angle="269.98" type="DEFAULT_VEHTYPE" speed="1.89" pos="6.99" lane="-3.0.00_0" slope="0.00"/>
        <vehicle id="14" x="320.68" y="2.00" angle="270.00" type="DEFAULT_VEHTYPE" speed="0.00" pos="5.10" lane="6.0.00_0" slope="0.00"/>
        <vehicle id="2" x="270.02" y="330.64" angle="270.00" type="DEFAULT_VEHTYPE" speed="13.83" pos="55.67" lane="-1.0.00_0" slope="0.00"/>
        <vehicle id="3" x="285.31" y="269.13" angle="89.99" type="DEFAULT_VEHTYPE" speed="14.61" pos="118.08" lane="-10.0.00_0" slope="0.00"/>
        <vehicle id="4" x="284.03" y="2.00" angle="270.00" type="DEFAULT_VEHTYPE" speed="14.29" pos="41.75" lane="6.0.00_0" slope="0.00"/>
        <vehicle id="5" x="338.95" y="317.71" angle="0.03" type="DEFAULT_VEHTYPE" speed="0.01" pos="35.52" lane="16.0.00_0" slope="0.00"/>
        <vehicle id="6" x="-2.00" y="235.70" angle="180.00" type="DEFAULT_VEHTYPE" speed="14.29" pos="82.95" lane="-15.0.00_0" slope="0.00"/>
        <vehicle id="7" x="26.49" y="2.06" angle="270.03" type="DEFAULT_VEHTYPE" speed="12.20" pos="52.98" lane="5.0.00_0" slope="0.00"/>
        <vehicle id="9" x="350.60" y="330.61" angle="270.03" type="DEFAULT_VEHTYPE" speed="10.03" pos="34.05" lane="-0.0.00_0" slope="0.00"/>
    </timestep>
    <timestep time="15.00">
        <vehicle id="0" x="2.03" y="185.38" angle="0.00" type="DEFAULT_VEHTYPE" speed="13.80" pos="174.22" lane="15.0.00_0" slope="0.00"/>
        <vehicle id="1" x="396.38" y="98.55" angle="0.00" type="DEFAULT_VEHTYPE" speed="12.75" pos="88.48" lane="-8.0.00_0" slope="0.00"/>
        <vehicle id="10" x="202.60" y="326.65" angle="90.00" type="DEFAULT_VEHTYPE" speed="8.85" pos="34.46" lane="1.0.00_0" slope="0.00"/>
        <vehicle id="11" x="178.54" y="326.65" angle="90.00" type="DEFAULT_VEHTYPE" speed="3.76" pos="10.39" lane="1.0.00_0" slope="0.00"/>
        <vehicle id="12" x="184.65" y="269.12" angle="89.99" type="DEFAULT_VEHTYPE" speed="5.87" pos="17.42" lane="-10.0.00_0" slope="0.00"/>
        <vehicle id="13" x="68.22" y="330.65" angle="269.98" type="DEFAULT_VEHTYPE" speed="4.23" pos="11.22" lane="-3.0.00_0" slope="0.00"/>
        <vehicle id="14" x="318.22" y="2.00" angle="270.00" type="DEFAULT_VEHTYPE" speed="2.46" pos="7.56" lane="6.0.00_0" slope="0.00"/>
        <vehicle id="15" x="320.59" y="273.14" angle="269.99" type="DEFAULT_VEHTYPE" speed="0.00" pos="5.10" lane="10.0.00_0" slope="0.00"/>
        <vehicle id="2" x="256.30" y="330.64" angle="270.00" type="DEFAULT_VEHTYPE" speed="13.72" pos="69.39" lane="-1.0.00_0" slope="0.00"/>
        <vehicle id="3" x="300.25" y="269.14" angle="89.99" type="DEFAULT_VEHTYPE" speed="14.94" pos="133.01" lane="-10.0.00_0" slope="0.00"/>
        <vehicle id="4" x="269.89" y="2.00" angle="270.00" type="DEFAULT_VEHTYPE" speed="14.14" pos="55.89" lane="6.0.00_0" slope="0.00"/>
        <vehicle id="5" x="338.95" y="317.71" angle="0.03" type="DEFAULT_VEHTYPE" speed="0.00" pos="35.52" lane="16.0.00_0" slope="0.00"/>
        <vehicle id="6" x="-1.99" y="221.55" angle="180.00" type="DEFAULT_VEHTYPE" speed="14.14" pos="97.10" lane="-15.0.00_0" slope="0.00"/>
        <vehicle id="7" x="14.36" y="2.07" angle="270.03" type="DEFAULT_VEHTYPE" speed="12.13" pos="65.11" lane="5.0.00_0" slope="0.00"/>
        <vehicle id="9" x="343.60" y="329.97" angle="262.60" type="DEFAULT_VEHTYPE" speed="7.04" pos="4.73" lane=":43_1_0" slope="0.00"/>
    </timestep>
    <timestep time="16.00">
        <vehicle id="0" x="2.02" y="200.06" angle="0.00" type="DEFAULT_VEHTYPE" speed="14.69" pos="188.90" lane="15.0.00_0" slope="0.00"/>
        <vehicle id="1" x="396.37" y="111.08" angle="359.89" type="DEFAULT_VEHTYPE" speed="12.52" pos="101.01" lane="-8.0.00_0" slope="0.00"/>
        <vehicle id="10" x="213.28" y="326.65" angle="90.00" type="DEFAULT_VEHTYPE" speed="10.67" pos="45.13" lane="1.0.00_0" slope="0.00"/>
        <vehicle id="11" x="184.34" y="326.65" angle="90.00" type="DEFAULT_VEHTYPE" speed="5.81" pos="16.20" lane="1.0.00_0" slope="0.00"/>
        <vehicle id="12" x="191.84" y="269.12" angle="89.99" type="DEFAULT_VEHTYPE" speed="7.19" pos="24.61" lane="-10.0.00_0" slope="0.00"/>
        <vehicle id="13" x="62.66" y="330.65" angle="269.98" type="DEFAULT_VEHTYPE" speed="5.56" pos="16.78" lane="-3.0.00_0" slope="0.00"/>
        <vehicle id="14" x="313.42" y="2.00" angle="270.00" type="DEFAULT_VEHTYPE" speed="4.80" pos="12.36" lane="6.0.00_0" slope="0.00"/>
        <vehicle id="15" x="319.15" y="273.14" angle="269.99" type="DEFAULT_VEHTYPE" speed="1.44" pos="6.54" lane="10.0.00_0" slope="0.00"/>
        <vehicle id="16" x="320.60" y="199.09" angle="270.03" type="DEFAULT_VEHTYPE" speed="0.00" pos="5.10" lane="4.0.00_0" slope="0.00"/>
        <vehicle id="2" x="242.45" y="330.65" angle="270.11" type="DEFAULT_VEHTYPE" speed="13.85" pos="83.24" lane="-1.0.00_0" slope="0.00"/>
        <vehicle id="3" x="312.68" y="269.14" angle="89.99" type="DEFAULT_VEHTYPE" speed="12.42" pos="145.44" lane="-10.0.00_0" slope="0.00"/>
        <vehicle id="4" x="256.78" y="2.00" angle="270.00" type="DEFAULT_VEHTYPE" speed="13.11" pos="69.00" lane="6.0.00_0" slope="0.00"/>
        <vehicle id="5" x="338.95" y="317.71" angle="0.03" type="DEFAULT_VEHTYPE" speed="0.00" pos="35.52" lane="16.0.00_0" slope="0.00"/>
        <vehicle id="6" x="-1.98" y="207.39" angle="179.93" type="DEFAULT_VEHTYPE" speed="14.16" pos="111.26" lane="-15.0.00_0" slope="0.00"/>
        <vehicle id="7" x="4.04" y="4.83" angle="302.29" type="DEFAULT_VEHTYPE" speed="11.21" pos="6.74" lane="-20.0.00_0" slope="0.00"/>
        <vehicle id="9" x="337.04" y="325.42" angle="226.90" type="DEFAULT_VEHTYPE" speed="8.31" pos="4.75" lane=":43_6_0" slope="0.00"/>
    </timestep>
    <timestep time="17.00">
        <vehicle id="0" x="2.01" y="214.46" angle="359.89" type="DEFAULT_VEHTYPE" speed="14.40" pos="203.30" lane="15.0.00_0" slope="0.00"/>
        <vehicle id="1" x="396.37" y="123.12" angle="0.00" type="DEFAULT_VEHTYPE" speed="12.05" pos="113.05" lane="-8.0.00_0" slope="0.00"/>
        <vehicle id="10" x="225.97" y="326.65" angle="90.00" type="DEFAULT_VEHTYPE" speed="12.69" pos="57.82" lane="1.0.00_0" slope="0.00"/>
        <vehicle id="11" x="191.78" y="326.65" angle="90.00" type="DEFAULT_VEHTYPE" speed="7.43" pos="23.64" lane="1.0.00_0" slope="0.00"/>
        <vehicle id="12" x="200.38" y="269.12" angle="89.99" type="DEFAULT_VEHTYPE" speed="8.54" pos="33.15" lane="-10.0.00_0" slope="0.00"/>
        <vehicle id="13" x="55.71" y="330.64" angle="269.98" type="DEFAULT_VEHTYPE" speed="6.95" pos="23.73" lane="-3.0.00_0" slope="0.00"/>
        <vehicle id="14" x="306.56" y="2.00" angle="270.00" type="DEFAULT_VEHTYPE" speed="6.85" pos="19.22" lane="6.0.00_0" slope="0.00"/>
        <vehicle id="15" x="316.03" y="273.14" angle="269.99" type="DEFAULT_VEHTYPE" speed="3.12" pos="9.66" lane="10.0.00_0" slope="0.00"/>
        <vehicle id="16" x="318.28" y="199.09" angle="270.03" type="DEFAULT_VEHTYPE" speed="2.32" pos="7.42" lane="4.0.00_0" slope="0.00"/>
        <vehicle id="17" x="-1.97" y="313.55" angle="180.00" type="DEFAULT_VEHTYPE" speed="0.00" pos="5.10" lane="-15.0.00_0" slope="0.00"/>
        <vehicle id="2" x="228.97" y="330.65" angle="270.00" type="DEFAULT_VEHTYPE" speed="13.48" pos="96.72" lane="-1.0.00_0" slope="0.00"/>
        <vehicle id="3" x="321.19" y="269.14" angle="89.99" type="DEFAULT_VEHTYPE" speed="8.51" pos="153.95" lane="-10.0.00_0" slope="0.00"/>
        <vehicle id="4" x="242.55" y="2.01" angle="270.11" type="DEFAULT_VEHTYPE" speed="14.23" pos="83.23" lane="6.0.00_0" slope="0.00"/>
        <vehicle id="5" x="338.63" y="319.97" angle="356.39" type="DEFAULT_VEHTYPE" speed="2.28" pos="2.18" lane=":43_3_0" slope="0.00"/>
        <vehicle id="6" x="-1.98" y="193.27" angle="179.98" type="DEFAULT_VEHTYPE" speed="14.13" pos="125.38" lane="-15.0.00_0" slope="0.00"/>
        <vehicle id="7" x="2.07" y="16.26" angle="0.00" type="DEFAULT_VEHTYPE" speed="11.85" pos="5.10" lane="15.0.00_0" slope="0.00"/>
        <vehicle id="9" x="335.03" y="318.38" angle="188.53" type="DEFAULT_VEHTYPE" speed="7.46" pos="12.22" lane=":43_6_0" slope="0.00"/>
    </timestep>
    <timestep time="18.00">
        <vehicle id="0" x="2.01" y="228.33" angle="0.00" type="DEFAULT_VEHTYPE" speed="13.87" pos="217.17" lane="15.0.00_0" slope="0.00"/>
        <vehicle id="1" x="396.37" y="134.95" angle="0.00" type="DEFAULT_VEHTYPE" speed="11.82" pos="124.88" lane="-8.0.00_0" slope="0.00"/>
        <vehicle id="10" x="240.37" y="326.65" angle="90.00" type="DEFAULT_VEHTYPE" speed="14.40" pos="72.23" lane="1.0.00_0" slope="0.00"/>
        <vehicle id="11" x="200.74" y="326.65" angle="90.00" type="DEFAULT_VEHTYPE" speed="8.96" pos="32.60" lane="1.0.00_0" slope="0.00"/>
        <vehicle id="12" x="211.34" y="269.13" angle="89.99" type="DEFAULT_VEHTYPE" speed="10.96" pos="44.11" lane="-10.0.00_0" slope="0.00"/>
        <vehicle id="13" x="46.27" y="330.64" angle="269.98" type="DEFAULT_VEHTYPE" speed="9.44" pos="33.17" lane="-3.0.00_0" slope="0.00"/>
        <vehicle id="14" x="297.24" y="2.00" angle="270.00" type="DEFAULT_VEHTYPE" speed="9.32" pos="28.54" lane="6.0.00_0" slope="0.00"/>
        <vehicle id="15" x="310.38" y="273.14" angle="269.99" type="DEFAULT_VEHTYPE" speed="5.66" pos="15.31" lane="10.0.00_0" slope="0.00"/>
        <vehicle id="16" x="313.49" y="199.10" angle="270.03" type="DEFAULT_VEHTYPE" speed="4.78" pos="12.21" lane="4.0.00_0" slope="0.00"/>
        <vehicle id="17" x="-1.97" y="312.05" angle="180.00" type="DEFAULT_VEHTYPE" speed="1.50" pos="6.60" lane="-15.0.00_0" slope="0.00"/>
        <vehicle id="18" x="353.39" y="326.61" angle="90.03" type="DEFAULT_VEHTYPE" speed="0.00" pos="5.10" lane="0.0.00_0" slope="0.00"/>
        <vehicle id="2" x="215.57" y="330.65" angle="270.00" type="DEFAULT_VEHTYPE" speed="13.40" pos="110.12" lane="-1.0.00_0" slope="0.00"/>
        <vehicle id="3" x="325.20" y="269.14" angle="89.99" type="DEFAULT_VEHTYPE" speed="4.01" pos="157.96" lane="-10.0.00_0" slope="0.00"/>
        <vehicle id="4" x="228.53" y="2.01" angle="270.00" type="DEFAULT_VEHTYPE" speed="14.02" pos="97.25" lane="6.0.00_0" slope="0.00"/>
        <vehicle id="5" x="337.85" y="323.87" angle="349.26" type="DEFAULT_VEHTYPE" speed="4.01" pos="6.19" lane=":43_3_0" slope="0.00"/>
        <vehicle id="6" x="-1.97" y="179.11" angle="180.00" type="DEFAULT_VEHTYPE" speed="14.15" pos="139.54" lane="-15.0.00_0" slope="0.00"/>
        <vehicle id="7" x="2.07" y="27.76" angle="0.00" type="DEFAULT_VEHTYPE" speed="11.50" pos="16.60" lane="15.0.00_0" slope="0.00"/>
        <vehicle id="9" x="334.95" y="310.77" angle="180.03" type="DEFAULT_VEHTYPE" speed="7.62" pos="7.05" lane="-16.0.00_0" slope="0.00"/>
    </timestep>
    <timestep time="19.00">
        <vehicle id="0" x="2.00" y="242.71" angle="0.00" type="DEFAULT_VEHTYPE" speed="14.38" pos="231.55" lane="15.0.00_0" slope="0.00"/>
        <vehicle id="1" x="396.37" y="147.18" angle="0.00" type="DEFAULT_VEHTYPE" speed="12.24" pos="137.11" lane="-8.0.00_0" slope="0.00"/>
        <vehicle id="10" x="255.31" y="326.64" angle="90.00" type="DEFAULT_VEHTYPE" speed="14.94" pos="87.16" lane="1.0.00_0" slope="0.00"/>
        <vehicle id="11" x="212.06" y="326.65" angle="90.00" type="DEFAULT_VEHTYPE" speed="11.32" pos="43.92" lane="1.0.00_0" slope="0.00"/>
        <vehicle id="12" x="224.64" y="269.13" angle="89.99" type="DEFAULT_VEHTYPE" speed="13.30" pos="57.41" lane="-10.0.00_0" slope="0.00"/>
        <vehicle id="13" x="34.30" y="330.64" angle="269.98" type="DEFAULT_VEHTYPE" speed="11.98" pos="45.14" lane="-3.0.00_0" slope="0.00"/>
        <vehicle id="14" x="286.28" y="2.00" angle="270.00" type="DEFAULT_VEHTYPE" speed="10.95" pos="39.50" lane="6.0.00_0" slope="0.00"/>
        <vehicle id="15" x="302.76" y="273.14" angle="269.99" type="DEFAULT_VEHTYPE" speed="7.62" pos="22.93" lane="10.0.00_0" slope="0.00"/>
        <vehicle id="16" x="306.98" y="199.10" angle="270.03" type="DEFAULT_VEHTYPE" speed="6.51" pos="18.72" lane="4.0.00_0" slope="0.00"/>
        <vehicle id="17" x="-1.97" y="309.21" angle="180.00" type="DEFAULT_VEHTYPE" speed="2.84" pos="9.44" lane="-15.0.00_0" slope="0.00"/>
        <vehicle id="18" x="355.14" y="326.61" angle="90.03" type="DEFAULT_VEHTYPE" speed="1.75" pos="6.85" lane="0.0.00_0" slope="0.00"/>
        <vehicle id="19" x="389.29" y="-1.11" angle="79.65" type="DEFAULT_VEHTYPE" speed="0.00" pos="5.10" lane="14.0.00_0" slope="0.00"/>
        <vehicle id="2" x="202.10" y="330.65" angle="270.00" type="DEFAULT_VEHTYPE" speed="13.47" pos="123.59" lane="-1.0.00_0" slope="0.00"/>
        <vehicle id="3" x="325.53" y="269.14" angle="89.99" type="DEFAULT_VEHTYPE" speed="0.33" pos="158.29" lane="-10.0.00_0" slope="0.00"/>
        <vehicle id="4" x="214.52" y="2.01" angle="270.00" type="DEFAULT_VEHTYPE" speed="14.01" pos="111.26" lane="6.0.00_0" slope="0.00"/>
        <vehicle id="5" x="334.56" y="328.05" angle="321.20" type="DEFAULT_VEHTYPE" speed="5.43" pos="11.63" lane=":43_3_0" slope="0.00"/>
        <vehicle id="6" x="-1.96" y="165.06" angle="180.00" type="DEFAULT_VEHTYPE" speed="14.05" pos="153.59" lane="-15.0.00_0" slope="0.00"/>
        <vehicle id="7" x="2.07" y="39.77" angle="0.00" type="DEFAULT_VEHTYPE" speed="12.01" pos="28.61" lane="15.0.00_0" slope="0.00"/>
        <vehicle id="9" x="334.94" y="301.36" angle="180.03" type="DEFAULT_VEHTYPE" speed="9.41" pos="16.46" lane="-16.0.00_0" slope="0.00"/>
    </timestep>
    <timestep time="20.00">
        <vehicle id="0" x="2.01" y="256.42" angle="0.11" type="DEFAULT_VEHTYPE" speed="13.71" pos="245.26" lane="15.0.00_0" slope="0.00"/>
        <vehicle id="1" x="396.36" y="159.48" angle="359.89" type="DEFAULT_VEHTYPE" speed="12.30" pos="149.41" lane="-8.0.00_0" slope="0.00"/>