<?xml version="1.0" encoding="UTF-8"?>

<!-- generated on Wed Aug 14 12:04:02 2019 by Eclipse SUMO Version 1.2.0
<configuration xmlns:xsi="http://www.w3.org/2001/XMLSchema-instance" xsi:noNamespaceSchemaLocation="http://sumo.dlr.de/xsd/sumoConfiguration.xsd">

    <input>
        <net-file value="Town01.net.xml"/>
        <route-files value="trips.trips.xml"/>
    </input>

    <output>
        <netstate-dump value="test.log"/>
        <fcd-output value="Town02_Car150_1.log"/>
    </output>

    <time>
        <begin value="0"/>
        <end value="10000"/>
    </time>

</configuration>
-->

<fcd-export xmlns:xsi="http://www.w3.org/2001/XMLSchema-instance" xsi:noNamespaceSchemaLocation="http://sumo.dlr.de/xsd/fcd_file.xsd">
    <timestep time="0.00">
        <vehicle id="0" x="320.63" y="133.45" angle="270.01" type="DEFAULT_VEHTYPE" speed="0.00" pos="5.10" lane="12.0.00_0" slope="0.00"/>
    </timestep>
    <timestep time="1.00">
        <vehicle id="0" x="318.88" y="133.45" angle="270.01" type="DEFAULT_VEHTYPE" speed="1.75" pos="6.85" lane="12.0.00_0" slope="0.00"/>
        <vehicle id="1" x="334.92" y="254.48" angle="180.03" type="DEFAULT_VEHTYPE" speed="0.00" pos="5.10" lane="-17.0.00_0" slope="0.00"/>
    </timestep>
    <timestep time="2.00">
        <vehicle id="0" x="315.22" y="133.45" angle="270.01" type="DEFAULT_VEHTYPE" speed="3.66" pos="10.51" lane="12.0.00_0" slope="0.00"/>
        <vehicle id="1" x="334.92" y="253.16" angle="180.03" type="DEFAULT_VEHTYPE" speed="1.32" pos="6.42" lane="-17.0.00_0" slope="0.00"/>
        <vehicle id="2" x="6.04" y="330.15" angle="264.42" type="DEFAULT_VEHTYPE" speed="0.00" pos="5.10" lane="13.0.00_0" slope="0.00"/>
    </timestep>
    <timestep time="3.00">
        <vehicle id="0" x="309.48" y="133.45" angle="270.01" type="DEFAULT_VEHTYPE" speed="5.75" pos="16.25" lane="12.0.00_0" slope="0.00"/>
        <vehicle id="1" x="334.91" y="249.96" angle="180.03" type="DEFAULT_VEHTYPE" speed="3.20" pos="9.62" lane="-17.0.00_0" slope="0.00"/>
        <vehicle id="2" x="3.87" y="329.28" angle="254.58" type="DEFAULT_VEHTYPE" speed="2.34" pos="7.44" lane="13.0.00_0" slope="0.00"/>
        <vehicle id="3" x="106.58" y="195.20" angle="90.03" type="DEFAULT_VEHTYPE" speed="0.00" pos="5.10" lane="-4.0.00_0" slope="0.00"/>
    </timestep>
    <timestep time="4.00">
        <vehicle id="0" x="302.15" y="133.45" angle="270.01" type="DEFAULT_VEHTYPE" speed="7.33" pos="23.58" lane="12.0.00_0" slope="0.00"/>
        <vehicle id="1" x="334.91" y="244.74" angle="180.03" type="DEFAULT_VEHTYPE" speed="5.22" pos="14.84" lane="-17.0.00_0" slope="0.00"/>
        <vehicle id="2" x="0.85" y="327.05" angle="236.64" type="DEFAULT_VEHTYPE" speed="3.78" pos="11.22" lane="13.0.00_0" slope="0.00"/>
        <vehicle id="3" x="108.71" y="195.20" angle="90.03" type="DEFAULT_VEHTYPE" speed="2.13" pos="7.23" lane="-4.0.00_0" slope="0.00"/>
        <vehicle id="4" x="338.89" y="213.13" angle="0.03" type="DEFAULT_VEHTYPE" speed="0.00" pos="5.10" lane="17.0.00_0" slope="0.00"/>
    </timestep>
    <timestep time="5.00">
        <vehicle id="0" x="293.22" y="133.45" angle="270.01" type="DEFAULT_VEHTYPE" speed="8.92" pos="32.51" lane="12.0.00_0" slope="0.00"/>
        <vehicle id="1" x="334.91" y="237.84" angle="180.03" type="DEFAULT_VEHTYPE" speed="6.90" pos="21.74" lane="-17.0.00_0" slope="0.00"/>
        <vehicle id="2" x="-1.80" y="321.53" angle="202.58" type="DEFAULT_VEHTYPE" speed="6.23" pos="17.45" lane="13.0.00_0" slope="0.00"/>
        <vehicle id="3" x="112.60" y="195.19" angle="90.03" type="DEFAULT_VEHTYPE" speed="3.89" pos="11.12" lane="-4.0.00_0" slope="0.00"/>
        <vehicle id="4" x="338.89" y="215.62" angle="0.03" type="DEFAULT_VEHTYPE" speed="2.49" pos="7.59" lane="17.0.00_0" slope="0.00"/>
    </timestep>
    <timestep time="6.00">
        <vehicle id="0" x="282.21" y="133.45" angle="270.01" type="DEFAULT_VEHTYPE" speed="11.01" pos="43.52" lane="12.0.00_0" slope="0.00"/>
        <vehicle id="1" x="334.90" y="228.65" angle="180.03" type="DEFAULT_VEHTYPE" speed="9.19" pos="30.93" lane="-17.0.00_0" slope="0.00"/>
        <vehicle id="2" x="-1.97" y="313.54" angle="180.00" type="DEFAULT_VEHTYPE" speed="8.09" pos="5.11" lane="-15.0.00_0" slope="0.00"/>
        <vehicle id="3" x="118.82" y="195.19" angle="90.03" type="DEFAULT_VEHTYPE" speed="6.22" pos="17.34" lane="-4.0.00_0" slope="0.00"/>
        <vehicle id="4" x="338.90" y="219.98" angle="0.03" type="DEFAULT_VEHTYPE" speed="4.36" pos="11.95" lane="17.0.00_0" slope="0.00"/>
        <vehicle id="6" x="378.88" y="2.00" angle="270.00" type="DEFAULT_VEHTYPE" speed="0.00" pos="5.10" lane="7.0.00_0" slope="0.00"/>
    </timestep>
    <timestep time="7.00">
        <vehicle id="0" x="269.46" y="133.46" angle="270.01" type="DEFAULT_VEHTYPE" speed="12.75" pos="56.27" lane="12.0.00_0" slope="0.00"/>
        <vehicle id="1" x="334.90" y="217.29" angle="180.03" type="DEFAULT_VEHTYPE" speed="11.36" pos="42.29" lane="-17.0.00_0" slope="0.00"/>
        <vehicle id="2" x="-1.98" y="302.89" angle="180.11" type="DEFAULT_VEHTYPE" speed="10.65" pos="15.76" lane="-15.0.00_0" slope="0.00"/>
        <vehicle id="3" x="127.62" y="195.19" angle="90.03" type="DEFAULT_VEHTYPE" speed="8.80" pos="26.14" lane="-4.0.00_0" slope="0.00"/>
        <vehicle id="4" x="338.90" y="226.88" angle="0.03" type="DEFAULT_VEHTYPE" speed="6.90" pos="18.85" lane="17.0.00_0" slope="0.00"/>
        <vehicle id="5" x="338.89" y="213.13" angle="0.03" type="DEFAULT_VEHTYPE" speed="0.00" pos="5.10" lane="17.0.00_0" slope="0.00"/>
        <vehicle id="6" x="376.37" y="2.00" angle="270.00" type="DEFAULT_VEHTYPE" speed="2.51" pos="7.61" lane="7.0.00_0" slope="0.00"/>
        <vehicle id="7" x="106.55" y="269.11" angle="89.99" type="DEFAULT_VEHTYPE" speed="0.00" pos="5.10" lane="-9.0.00_0" slope="0.00"/>
    </timestep>
    <timestep time="8.00">
        <vehicle id="0" x="255.25" y="133.46" angle="270.01" type="DEFAULT_VEHTYPE" speed="14.21" pos="70.48" lane="12.0.00_0" slope="0.00"/>
        <vehicle id="1" x="334.89" y="208.15" angle="180.03" type="DEFAULT_VEHTYPE" speed="9.14" pos="51.43" lane="-17.0.00_0" slope="0.00"/>
        <vehicle id="2" x="-1.98" y="289.72" angle="180.00" type="DEFAULT_VEHTYPE" speed="13.17" pos="28.93" lane="-15.0.00_0" slope="0.00"/>
        <vehicle id="3" x="138.24" y="195.18" angle="90.03" type="DEFAULT_VEHTYPE" speed="10.62" pos="36.76" lane="-4.0.00_0" slope="0.00"/>
        <vehicle id="4" x="338.91" y="236.00" angle="0.03" type="DEFAULT_VEHTYPE" speed="9.12" pos="27.97" lane="17.0.00_0" slope="0.00"/>
        <vehicle id="5" x="338.89" y="215.57" angle="0.03" type="DEFAULT_VEHTYPE" speed="2.44" pos="7.54" lane="17.0.00_0" slope="0.00"/>
        <vehicle id="6" x="371.75" y="2.00" angle="270.00" type="DEFAULT_VEHTYPE" speed="4.62" pos="12.23" lane="7.0.00_0" slope="0.00"/>
        <vehicle id="7" x="108.10" y="269.11" angle="89.99" type="DEFAULT_VEHTYPE" speed="1.55" pos="6.65" lane="-9.0.00_0" slope="0.00"/>
        <vehicle id="8" x="106.78" y="-1.98" angle="90.00" type="DEFAULT_VEHTYPE" speed="0.00" pos="5.10" lane="-6.0.00_0" slope="0.00"/>
    </timestep>
    <timestep time="9.00">
        <vehicle id="0" x="240.97" y="133.46" angle="270.01" type="DEFAULT_VEHTYPE" speed="14.29" pos="84.76" lane="12.0.00_0" slope="0.00"/>
        <vehicle id="1" x="332.88" y="201.80" angle="201.13" type="DEFAULT_VEHTYPE" speed="6.80" pos="6.68" lane=":139_0_0" slope="0.00"/>
        <vehicle id="2" x="-1.99" y="276.29" angle="180.11" type="DEFAULT_VEHTYPE" speed="13.43" pos="42.36" lane="-15.0.00_0" slope="0.00"/>
        <vehicle id="3" x="151.06" y="195.18" angle="90.03" type="DEFAULT_VEHTYPE" speed="12.82" pos="49.58" lane="-4.0.00_0" slope="0.00"/>
        <vehicle id="4" x="338.91" y="247.36" angle="0.03" type="DEFAULT_VEHTYPE" speed="11.36" pos="39.33" lane="17.0.00_0" slope="0.00"/>
        <vehicle id="5" x="338.90" y="219.63" angle="0.03" type="DEFAULT_VEHTYPE" speed="4.06" pos="11.60" lane="17.0.00_0" slope="0.00"/>
        <vehicle id="6" x="365.79" y="2.00" angle="270.00" type="DEFAULT_VEHTYPE" speed="5.96" pos="18.19" lane="7.0.00_0" slope="0.00"/>
        <vehicle id="7" x="111.29" y="269.11" angle="89.99" type="DEFAULT_VEHTYPE" speed="3.19" pos="9.84" lane="-9.0.00_0" slope="0.00"/>
        <vehicle id="8" x="109.16" y="-1.98" angle="90.00" type="DEFAULT_VEHTYPE" speed="2.38" pos="7.48" lane="-6.0.00_0" slope="0.00"/>
        <vehicle id="9" x="-1.97" y="313.55" angle="180.00" type="DEFAULT_VEHTYPE" speed="0.00" pos="5.10" lane="-15.0.00_0" slope="0.00"/>
    </timestep>
    <timestep time="10.00">
        <vehicle id="0" x="226.88" y="133.46" angle="270.01" type="DEFAULT_VEHTYPE" speed="14.09" pos="98.85" lane="12.0.00_0" slope="0.00"/>
        <vehicle id="1" x="326.35" y="199.18" angle="254.95" type="DEFAULT_VEHTYPE" speed="7.28" pos="13.96" lane=":139_0_0" slope="0.00"/>
        <vehicle id="10" x="106.55" y="269.11" angle="89.99" type="DEFAULT_VEHTYPE" speed="0.00" pos="5.10" lane="-9.0.00_0" slope="0.00"/>
        <vehicle id="2" x="-1.99" y="262.68" angle="180.00" type="DEFAULT_VEHTYPE" speed="13.62" pos="55.97" lane="-15.0.00_0" slope="0.00"/>
        <vehicle id="3" x="165.16" y="195.17" angle="90.03" type="DEFAULT_VEHTYPE" speed="14.11" pos="63.69" lane="-4.0.00_0" slope="0.00"/>
        <vehicle id="4" x="338.92" y="261.28" angle="0.03" type="DEFAULT_VEHTYPE" speed="13.91" pos="1.70" lane=":111_2_0" slope="0.00"/>
        <vehicle id="5" x="338.90" y="225.94" angle="0.03" type="DEFAULT_VEHTYPE" speed="6.31" pos="17.91" lane="17.0.00_0" slope="0.00"/>
        <vehicle id="6" x="358.20" y="2.00" angle="270.00" type="DEFAULT_VEHTYPE" speed="7.59" pos="25.78" lane="7.0.00_0" slope="0.00"/>
        <vehicle id="7" x="116.36" y="269.11" angle="89.99" type="DEFAULT_VEHTYPE" speed="5.06" pos="14.91" lane="-9.0.00_0" slope="0.00"/>
        <vehicle id="8" x="113.42" y="-1.98" angle="90.00" type="DEFAULT_VEHTYPE" speed="4.27" pos="11.74" lane="-6.0.00_0" slope="0.00"/>
        <vehicle id="9" x="-1.97" y="311.15" angle="180.00" type="DEFAULT_VEHTYPE" speed="2.40" pos="7.50" lane="-15.0.00_0" slope="0.00"/>
    </timestep>
    <timestep time="11.00">
        <vehicle id="0" x="212.83" y="133.46" angle="270.01" type="DEFAULT_VEHTYPE" speed="14.05" pos="112.90" lane="12.0.00_0" slope="0.00"/>
        <vehicle id="1" x="319.27" y="199.09" angle="270.03" type="DEFAULT_VEHTYPE" speed="7.09" pos="6.43" lane="4.0.00_0" slope="0.00"/>
        <vehicle id="10" x="108.60" y="269.11" angle="89.99" type="DEFAULT_VEHTYPE" speed="2.05" pos="7.15" lane="-9.0.00_0" slope="0.00"/>
        <vehicle id="11" x="320.68" y="2.00" angle="270.00" type="DEFAULT_VEHTYPE" speed="0.00" pos="5.10" lane="6.0.00_0" slope="0.00"/>
        <vehicle id="2" x="-2.00" y="249.24" angle="180.07" type="DEFAULT_VEHTYPE" speed="13.44" pos="69.41" lane="-15.0.00_0" slope="0.00"/>
        <vehicle id="3" x="178.98" y="195.16" angle="90.03" type="DEFAULT_VEHTYPE" speed="13.82" pos="77.50" lane="-4.0.00_0" slope="0.00"/>
        <vehicle id="4" x="338.93" y="275.01" angle="0.03" type="DEFAULT_VEHTYPE" speed="13.74" pos="15.44" lane=":111_2_0" slope="0.00"/>
        <vehicle id="5" x="338.91" y="234.84" angle="0.03" type="DEFAULT_VEHTYPE" speed="8.90" pos="26.81" lane="17.0.00_0" slope="0.00"/>
        <vehicle id="6" x="349.24" y="2.00" angle="270.00" type="DEFAULT_VEHTYPE" speed="8.96" pos="34.74" lane="7.0.00_0" slope="0.00"/>
        <vehicle id="7" x="122.93" y="269.11" angle="89.99" type="DEFAULT_VEHTYPE" speed="6.58" pos="21.48" lane="-9.0.00_0" slope="0.00"/>
        <vehicle id="8" x="119.76" y="-1.98" angle="90.00" type="DEFAULT_VEHTYPE" speed="6.34" pos="18.08" lane="-6.0.00_0" slope="0.00"/>
        <vehicle id="9" x="-1.97" y="306.39" angle="180.02" type="DEFAULT_VEHTYPE" speed="4.76" pos="12.26" lane="-15.0.00_0" slope="0.00"/>
    </timestep>
    <timestep time="12.00">
        <vehicle id="0" x="198.72" y="133.46" angle="270.01" type="DEFAULT_VEHTYPE" speed="14.11" pos="127.01" lane="12.0.00_0" slope="0.00"/>
        <vehicle id="1" x="309.86" y="199.10" angle="270.03" type="DEFAULT_VEHTYPE" speed="9.41" pos="15.84" lane="4.0.00_0" slope="0.00"/>
        <vehicle id="10" x="112.04" y="269.11" angle="89.99" type="DEFAULT_VEHTYPE" speed="3.44" pos="10.59" lane="-9.0.00_0" slope="0.00"/>
        <vehicle id="11" x="319.01" y="2.00" angle="270.00" type="DEFAULT_VEHTYPE" speed="1.67" pos="6.77" lane="6.0.00_0" slope="0.00"/>
        <vehicle id="2" x="-2.00" y="235.44" angle="180.00" type="DEFAULT_VEHTYPE" speed="13.80" pos="83.21" lane="-15.0.00_0" slope="0.00"/>
        <vehicle id="3" x="194.02" y="195.15" angle="90.03" type="DEFAULT_VEHTYPE" speed="15.04" pos="92.54" lane="-4.0.00_0" slope="0.00"/>
        <vehicle id="4" x="338.93" y="288.67" angle="0.03" type="DEFAULT_VEHTYPE" speed="13.67" pos="6.48" lane="16.0.00_0" slope="0.00"/>
        <vehicle id="5" x="338.91" y="245.23" angle="0.03" type="DEFAULT_VEHTYPE" speed="10.39" pos="37.20" lane="17.0.00_0" slope="0.00"/>
        <vehicle id="6" x="341.59" y="3.94" angle="290.42" type="DEFAULT_VEHTYPE" speed="8.07" pos="6.62" lane=":60_2_0" slope="0.00"/>
        <vehicle id="7" x="131.62" y="269.12" angle="89.99" type="DEFAULT_VEHTYPE" speed="8.69" pos="30.17" lane="-9.0.00_0" slope="0.00"/>
        <vehicle id="8" x="127.60" y="-1.98" angle="90.00" type="DEFAULT_VEHTYPE" speed="7.84" pos="25.92" lane="-6.0.00_0" slope="0.00"/>
        <vehicle id="9" x="-1.98" y="299.41" angle="180.00" type="DEFAULT_VEHTYPE" speed="6.98" pos="19.24" lane="-15.0.00_0" slope="0.00"/>
    </timestep>
    <timestep time="13.00">
        <vehicle id="0" x="185.20" y="133.46" angle="270.01" type="DEFAULT_VEHTYPE" speed="13.53" pos="140.53" lane="12.0.00_0" slope="0.00"/>
        <vehicle id="1" x="297.99" y="199.10" angle="270.03" type="DEFAULT_VEHTYPE" speed="11.87" pos="27.71" lane="4.0.00_0" slope="0.00"/>
        <vehicle id="10" x="117.71" y="269.11" angle="89.99" type="DEFAULT_VEHTYPE" speed="5.67" pos="16.26" lane="-9.0.00_0" slope="0.00"/>
        <vehicle id="11" x="314.98" y="2.00" angle="270.00" type="DEFAULT_VEHTYPE" speed="4.03" pos="10.80" lane="6.0.00_0" slope="0.00"/>
        <vehicle id="12" x="106.55" y="269.11" angle="89.99" type="DEFAULT_VEHTYPE" speed="0.00" pos="5.10" lane="-9.0.00_0" slope="0.00"/>
        <vehicle id="13" x="396.41" y="15.17" angle="0.00" type="DEFAULT_VEHTYPE" speed="0.00" pos="5.10" lane="-8.0.00_0" slope="0.00"/>
        <vehicle id="2" x="-1.99" y="221.77" angle="180.00" type="DEFAULT_VEHTYPE" speed="13.67" pos="96.88" lane="-15.0.00_0" slope="0.00"/>
        <vehicle id="3" x="208.12" y="195.15" angle="90.03" type="DEFAULT_VEHTYPE" speed="14.10" pos="106.64" lane="-4.0.00_0" slope="0.00"/>
        <vehicle id="4" x="338.94" y="302.10" angle="0.03" type="DEFAULT_VEHTYPE" speed="13.43" pos="19.91" lane="16.0.00_0" slope="0.00"/>
        <vehicle id="5" x="338.92" y="255.78" angle="0.03" type="DEFAULT_VEHTYPE" speed="10.54" pos="47.75" lane="17.0.00_0" slope="0.00"/>
        <vehicle id="6" x="338.86" y="10.49" angle="344.74" type="DEFAULT_VEHTYPE" speed="7.36" pos="13.99" lane=":60_2_0" slope="0.00"/>
        <vehicle id="7" x="142.36" y="269.12" angle="89.99" type="DEFAULT_VEHTYPE" speed="10.73" pos="40.91" lane="-9.0.00_0" slope="0.00"/>
        <vehicle id="8" x="137.04" y="-1.98" angle="90.00" type="DEFAULT_VEHTYPE" speed="9.44" pos="35.36" lane="-6.0.00_0" slope="0.00"/>
        <vehicle id="9" x="-1.98" y="290.24" angle="180.00" type="DEFAULT_VEHTYPE" speed="9.17" pos="28.41" lane="-15.0.00_0" slope="0.00"/>
    </timestep>
    <timestep time="14.00">
        <vehicle id="0" x="171.74" y="133.46" angle="270.01" type="DEFAULT_VEHTYPE" speed="13.45" pos="153.99" lane="12.0.00_0" slope="0.00"/>
        <vehicle id="1" x="285.83" y="199.11" angle="270.03" type="DEFAULT_VEHTYPE" speed="12.16" pos="39.87" lane="4.0.00_0" slope="0.00"/>
        <vehicle id="10" x="125.87" y="269.12" angle="89.99" type="DEFAULT_VEHTYPE" speed="8.15" pos="24.42" lane="-9.0.00_0" slope="0.00"/>
        <vehicle id="11" x="308.38" y="2.00" angle="270.00" type="DEFAULT_VEHTYPE" speed="6.61" pos="17.40" lane="6.0.00_0" slope="0.00"/>
        <vehicle id="12" x="108.73" y="269.11" angle="89.99" type="DEFAULT_VEHTYPE" speed="2.18" pos="7.28" lane="-9.0.00_0" slope="0.00"/>
        <vehicle id="13" x="396.41" y="16.49" angle="0.00" type="DEFAULT_VEHTYPE" speed="1.32" pos="6.42" lane="-8.0.00_0" slope="0.00"/>
        <vehicle id="14" x="352.89" y="-2.00" angle="90.00" type="DEFAULT_VEHTYPE" speed="0.00" pos="5.10" lane="-7.0.00_0" slope="0.00"/>
        <vehicle id="2" x="-1.98" y="208.11" angle="179.89" type="DEFAULT_VEHTYPE" speed="13.66" pos="110.54" lane="-15.0.00_0" slope="0.00"/>
        <vehicle id="3" x="222.54" y="195.14" angle="90.03" type="DEFAULT_VEHTYPE" speed="14.42" pos="121.06" lane="-4.0.00_0" slope="0.00"/>
        <vehicle id="4" x="338.95" y="311.04" angle="0.03" type="DEFAULT_VEHTYPE" speed="8.93" pos="28.85" lane="16.0.00_0" slope="0.00"/>
        <vehicle id="5" x="338.44" y="263.03" angle="354.46" type="DEFAULT_VEHTYPE" speed="7.29" pos="3.48" lane=":111_3_0" slope="0.00"/>
        <vehicle id="6" x="338.77" y="18.50" angle="0.03" type="DEFAULT_VEHTYPE" speed="8.01" pos="7.34" lane="19.0.00_0" slope="0.00"/>
        <vehicle id="7" x="148.62" y="269.64" angle="84.01" type="DEFAULT_VEHTYPE" speed="6.31" pos="3.61" lane=":167_5_0" slope="0.00"/>
        <vehicle id="8" x="148.24" y="-1.98" angle="90.00" type="DEFAULT_VEHTYPE" speed="11.20" pos="46.56" lane="-6.0.00_0" slope="0.00"/>
        <vehicle id="9" x="-1.99" y="279.56" angle="180.07" type="DEFAULT_VEHTYPE" speed="10.67" pos="39.09" lane="-15.0.00_0" slope="0.00"/>
    </timestep>
    <timestep time="15.00">
        <vehicle id="0" x="157.75" y="133.46" angle="270.01" type="DEFAULT_VEHTYPE" speed="13.99" pos="167.98" lane="12.0.00_0" slope="0.00"/>
        <vehicle id="1" x="273.60" y="199.12" angle="270.03" type="DEFAULT_VEHTYPE" speed="12.23" pos="52.10" lane="4.0.00_0" slope="0.00"/>
        <vehicle id="10" x="135.89" y="269.12" angle="89.99" type="DEFAULT_VEHTYPE" speed="10.02" pos="34.44" lane="-9.0.00_0" slope="0.00"/>
        <vehicle id="11" x="299.34" y="2.00" angle="270.00" type="DEFAULT_VEHTYPE" speed="9.04" pos="26.44" lane="6.0.00_0" slope="0.00"/>
        <vehicle id="12" x="112.93" y="269.11" angle="89.99" type="DEFAULT_VEHTYPE" speed="4.20" pos="11.48" lane="-9.0.00_0" slope="0.00"/>
        <vehicle id="13" x="396.41" y="20.31" angle="0.00" type="DEFAULT_VEHTYPE" speed="3.82" pos="10.24" lane="-8.0.00_0" slope="0.00"/>
        <vehicle id="14" x="354.87" y="-2.00" angle="90.00" type="DEFAULT_VEHTYPE" speed="1.98" pos="7.08" lane="-7.0.00_0" slope="0.00"/>
        <vehicle id="2" x="-1.98" y="194.54" angle="180.00" type="DEFAULT_VEHTYPE" speed="13.56" pos="124.11" lane="-15.0.00_0" slope="0.00"/>
        <vehicle id="3" x="237.17" y="195.13" angle="90.03" type="DEFAULT_VEHTYPE" speed="14.63" pos="135.69" lane="-4.0.00_0" slope="0.00"/>
        <vehicle id="4" x="338.95" y="316.36" angle="0.03" type="DEFAULT_VEHTYPE" speed="5.33" pos="34.17" lane="16.0.00_0" slope="0.00"/>
        <vehicle id="5" x="337.62" y="266.32" angle="347.89" type="DEFAULT_VEHTYPE" speed="3.45" pos="6.93" lane=":111_3_0" slope="0.00"/>
        <vehicle id="6" x="338.78" y="29.02" angle="0.03" type="DEFAULT_VEHTYPE" speed="10.52" pos="17.86" lane="19.0.00_0" slope="0.00"/>
        <vehicle id="7" x="155.24" y="273.16" angle="53.95" type="DEFAULT_VEHTYPE" speed="7.76" pos="3.37" lane=":167_6_0" slope="0.00"/>
        <vehicle id="8" x="160.09" y="-1.99" angle="90.00" type="DEFAULT_VEHTYPE" speed="11.85" pos="58.41" lane="-6.0.00_0" slope="0.00"/>
        <vehicle id="9" x="-1.99" y="268.92" angle="180.00" type="DEFAULT_VEHTYPE" speed="10.65" pos="49.73" lane="-15.0.00_0" slope="0.00"/>
    </timestep>
    <timestep time="16.00">
        <vehicle id="0" x="144.30" y="133.47" angle="270.01" type="DEFAULT_VEHTYPE" speed="13.45" pos="181.43" lane="12.0.00_0" slope="0.00"/>
        <vehicle id="1" x="261.48" y="199.12" angle="270.03" type="DEFAULT_VEHTYPE" speed="12.12" pos="64.22" lane="4.0.00_0" slope="0.00"/>
        <vehicle id="10" x="145.22" y="269.12" angle="89.99" type="DEFAULT_VEHTYPE" speed="9.34" pos="0.17" lane=":167_4_0" slope="0.00"/>
        <vehicle id="11" x="287.84" y="2.00" angle="270.00" type="DEFAULT_VEHTYPE" speed="11.50" pos="37.94" lane="6.0.00_0" slope="0.00"/>
        <vehicle id="12" x="118.52" y="269.11" angle="89.99" type="DEFAULT_VEHTYPE" speed="5.59" pos="17.07" lane="-9.0.00_0" slope="0.00"/>
        <vehicle id="13" x="396.40" y="26.39" angle="359.89" type="DEFAULT_VEHTYPE" speed="6.09" pos="16.32" lane="-8.0.00_0" slope="0.00"/>
        <vehicle id="14" x="358.54" y="-2.00" angle="90.00" type="DEFAULT_VEHTYPE" speed="3.67" pos="10.75" lane="-7.0.00_0" slope="0.00"/>
        <vehicle id="16" x="320.60" y="199.09" angle="270.03" type="DEFAULT_VEHTYPE" speed="0.00" pos="5.10" lane="4.0.00_0" slope="0.00"/>
        <vehicle id="2" x="-1.97" y="181.70" angle="180.00" type="DEFAULT_VEHTYPE" speed="12.84" pos="136.95" lane="-15.0.00_0" slope="0.00"/>
        <vehicle id="3" x="251.88" y="195.13" angle="90.03" type="DEFAULT_VEHTYPE" speed="14.72" pos="150.41" lane="-4.0.00_0" slope="0.00"/>
        <vehicle id="4" x="340.88" y="323.77" angle="20.60" type="DEFAULT_VEHTYPE" speed="7.84" pos="6.40" lane=":43_2_0" slope="0.00"/>
        <vehicle id="5" x="333.85" y="270.83" angle="318.10" type="DEFAULT_VEHTYPE" speed="6.05" pos="4.67" lane=":111_6_0" slope="0.00"/>
        <vehicle id="6" x="338.79" y="41.68" angle="0.03" type="DEFAULT_VEHTYPE" speed="12.67" pos="30.52" lane="19.0.00_0" slope="0.00"/>
        <vehicle id="7" x="157.81" y="280.48" angle="12.77" type="DEFAULT_VEHTYPE" speed="7.91" pos="11.28" lane=":167_6_0" slope="0.00"/>
        <vehicle id="8" x="172.22" y="-1.99" angle="90.00" type="DEFAULT_VEHTYPE" speed="12.13" pos="70.54" lane="-6.0.00_0" slope="0.00"/>
        <vehicle id="9" x="-1.99" y="257.77" angle="180.00" type="DEFAULT_VEHTYPE" speed="11.15" pos="60.88" lane="-15.0.00_0" slope="0.00"/>
    </timestep>
    <timestep time="17.00">
        <vehicle id="0" x="130.28" y="133.47" angle="270.01" type="DEFAULT_VEHTYPE" speed="14.02" pos="195.45" lane="12.0.00_0" slope="0.00"/>
        <vehicle id="1" x="248.78" y="199.13" angle="270.03" type="DEFAULT_VEHTYPE" speed="12.70" pos="76.92" lane="4.0.00_0" slope="0.00"/>
        <vehicle id="10" x="156.14" y="269.12" angle="90.00" type="DEFAULT_VEHTYPE" speed="10.92" pos="11.09" lane=":167_4_0" slope="0.00"/>
        <vehicle id="11" x="274.94" y="2.00" angle="270.00" type="DEFAULT_VEHTYPE" speed="12.89" pos="50.84" lane="6.0.00_0" slope="0.00"/>
        <vehicle id="12" x="126.69" y="269.12" angle="89.99" type="DEFAULT_VEHTYPE" speed="8.17" pos="25.24" lane="-9.0.00_0" slope="0.00"/>
        <vehicle id="13" x="396.40" y="34.27" angle="0.00" type="DEFAULT_VEHTYPE" speed="7.88" pos="24.20" lane="-8.0.00_0" slope="0.00"/>
        <vehicle id="14" x="363.53" y="-2.00" angle="90.00" type="DEFAULT_VEHTYPE" speed="5.00" pos="15.74" lane="-7.0.00_0" slope="0.00"/>
        <vehicle id="15" x="352.89" y="-2.00" angle="90.00" type="DEFAULT_VEHTYPE" speed="0.00" pos="5.10" lane="-7.0.00_0" slope="0.00"/>
        <vehicle id="16" x="319.12" y="199.09" angle="270.03" type="DEFAULT_VEHTYPE" speed="1.48" pos="6.58" lane="4.0.00_0" slope="0.00"/>
        <vehicle id="17" x="334.87" y="179.84" angle="180.03" type="DEFAULT_VEHTYPE" speed="0.00" pos="5.10" lane="-18.0.00_0" slope="0.00"/>
        <vehicle id="2" x="-1.96" y="168.66" angle="179.90" type="DEFAULT_VEHTYPE" speed="13.04" pos="149.99" lane="-15.0.00_0" slope="0.00"/>
        <vehicle id="3" x="266.25" y="195.12" angle="90.03" type="DEFAULT_VEHTYPE" speed="14.36" pos="164.77" lane="-4.0.00_0" slope="0.00"/>
        <vehicle id="4" x="348.20" y="326.60" angle="78.11" type="DEFAULT_VEHTYPE" speed="8.13" pos="14.53" lane=":43_2_0" slope="0.00"/>
        <vehicle id="5" x="327.07" y="272.94" angle="280.82" type="DEFAULT_VEHTYPE" speed="7.24" pos="11.90" lane=":111_6_0" slope="0.00"/>
        <vehicle id="6" x="338.79" y="54.99" angle="0.03" type="DEFAULT_VEHTYPE" speed="13.30" pos="43.83" lane="19.0.00_0" slope="0.00"/>
        <vehicle id="7" x="158.09" y="288.43" angle="0.08" type="DEFAULT_VEHTYPE" speed="7.97" pos="6.02" lane="25.0.00_0" slope="0.00"/>
        <vehicle id="8" x="184.08" y="-1.99" angle="90.00" type="DEFAULT_VEHTYPE" speed="11.86" pos="82.40" lane="-6.0.00_0" slope="0.00"/>
        <vehicle id="9" x="-2.00" y="245.93" angle="180.00" type="DEFAULT_VEHTYPE" speed="11.84" pos="72.72" lane="-15.0.00_0" slope="0.00"/>
    </timestep>
    <timestep time="18.00">
        <vehicle id="0" x="116.83" y="133.47" angle="270.01" type="DEFAULT_VEHTYPE" speed="13.45" pos="208.90" lane="12.0.00_0" slope="0.00"/>
        <vehicle id="1" x="236.13" y="199.13" angle="270.03" type="DEFAULT_VEHTYPE" speed="12.65" pos="89.57" lane="4.0.00_0" slope="0.00"/>
        <vehicle id="10" x="169.44" y="269.12" angle="90.00" type="DEFAULT_VEHTYPE" speed="13.29" pos="2.21" lane="-10.0.00_0" slope="0.00"/>
        <vehicle id="11" x="260.94" y="2.00" angle="270.00" type="DEFAULT_VEHTYPE" speed="14.00" pos="64.84" lane="6.0.00_0" slope="0.00"/>
        <vehicle id="12" x="136.47" y="269.12" angle="89.99" type="DEFAULT_VEHTYPE" speed="9.78" pos="35.02" lane="-9.0.00_0" slope="0.00"/>
        <vehicle id="13" x="396.40" y="44.39" angle="0.00" type="DEFAULT_VEHTYPE" speed="10.11" pos="34.32" lane="-8.0.00_0" slope="0.00"/>
        <vehicle id="14" x="371.04" y="-2.00" angle="90.00" type="DEFAULT_VEHTYPE" speed="7.51" pos="23.25" lane="-7.0.00_0" slope="0.00"/>
        <vehicle id="15" x="354.96" y="-2.00" angle="90.00" type="DEFAULT_VEHTYPE" speed="2.07" pos="7.17" lane="-7.0.00_0" slope="0.00"/>
        <vehicle id="16" x="316.15" y="199.09" angle="270.03" type="DEFAULT_VEHTYPE" speed="2.97" pos="9.55" lane="4.0.00_0" slope="0.00"/>
        <vehicle id="17" x="334.87" y="178.13" angle="180.03" type="DEFAULT_VEHTYPE" speed="1.71" pos="6.81" lane="-18.0.00_0" slope="0.00"/>
        <vehicle id="18" x="396.41" y="15.17" angle="0.00" type="DEFAULT_VEHTYPE" speed="0.00" pos="5.10" lane="-8.0.00_0" slope="0.00"/>
        <vehicle id="2" x="-1.95" y="155.18" angle="179.93" type="DEFAULT_VEHTYPE" speed="13.48" pos="163.47" lane="-15.0.00_0" slope="0.00"/>
        <vehicle id="3" x="280.52" y="195.11" angle="90.03" type="DEFAULT_VEHTYPE" speed="14.27" pos="179.05" lane="-4.0.00_0" slope="0.00"/>
        <vehicle id="4" x="356.12" y="326.61" angle="90.03" type="DEFAULT_VEHTYPE" speed="7.93" pos="7.83" lane="0.0.00_0" slope="0.00"/>
        <vehicle id="5" x="319.19" y="273.14" angle="269.99" type="DEFAULT_VEHTYPE" speed="7.90" pos="6.50" lane="10.0.00_0" slope="0.00"/>
        <vehicle id="6" x="338.80" y="69.30" angle="0.03" type="DEFAULT_VEHTYPE" speed="14.31" pos="58.14" lane="19.0.00_0" slope="0.00"/>
        <vehicle id="7" x="158.10" y="298.99" angle="0.08" type="DEFAULT_VEHTYPE" speed="10.56" pos="16.58" lane="25.0.00_0" slope="0.00"/>
        <vehicle id="8" x="196.46" y="-1.99" angle="90.00" type="DEFAULT_VEHTYPE" speed="12.38" pos="94.79" lane="-6.0.00_0" slope="0.00"/>
        <vehicle id="9" x="-2.00" y="235.17" angle="180.00" type="DEFAULT_VEHTYPE" speed="10.76" pos="83.48" lane="-15.0.00_0" slope="0.00"/>
    </timestep>
    <timestep time="19.00">
        <vehicle id="0" x="107.88" y="133.47" angle="270.01" type="DEFAULT_VEHTYPE" speed="8.95" pos="217.85" lane="12.0.00_0" slope="0.00"/>
        <vehicle id="1" x="223.50" y="199.14" angle="270.03" type="DEFAULT_VEHTYPE" speed="12.63" pos="102.20" lane="4.0.00_0" slope="0.00"/>
        <vehicle id="10" x="184.41" y="269.12" angle="89.99" type="DEFAULT_VEHTYPE" speed="14.98" pos="17.18" lane="-10.0.00_0" slope="0.00"/>
        <vehicle id="11" x="246.77" y="2.00" angle="270.00" type="DEFAULT_VEHTYPE" speed="14.18" pos="79.01" lane="6.0.00_0" slope="0.00"/>
        <vehicle id="12" x="148.01" y="269.12" angle="89.99" type="DEFAULT_VEHTYPE" speed="11.54" pos="2.96" lane=":167_4_0" slope="0.00"/>
        <vehicle id="13" x="396.39" y="57.09" angle="0.00" type="DEFAULT_VEHTYPE" speed="12.70" pos="47.02" lane="-8.0.00_0" slope="0.00"/>
        <vehicle id="14" x="380.06" y="-2.00" angle="90.00" type="DEFAULT_VEHTYPE" speed="9.02" pos="32.27" lane="-7.0.00_0" slope="0.00"/>
        <vehicle id="15" x="358.89" y="-2.00" angle="90.00" type="DEFAULT_VEHTYPE" speed="3.93" pos="11.10" lane="-7.0.00_0" slope="0.00"/>
        <vehicle id="16" x="310.67" y="199.10" angle="270.03" type="DEFAULT_VEHTYPE" speed="5.48" pos="15.03" lane="4.0.00_0" slope="0.00"/>
        <vehicle id="17" x="334.86" y="173.89" angle="180.03" type="DEFAULT_VEHTYPE" speed="4.24" pos="11.05" lane="-18.0.00_0" slope="0.00"/>
        <vehicle id="18" x="396.41" y="17.49" angle="0.00" type="DEFAULT_VEHTYPE" speed="2.32" pos="7.42" lane="-8.0.00_0" slope="0.00"/>
        <vehicle id="19" x="320.68" y="2.00" angle="270.00" type="DEFAULT_VEHTYPE" speed="0.00" pos="5.10" lane="6.0.00_0" slope="0.00"/>
        <vehicle id="2" x="-1.95" y="141.65" angle="180.00" type="DEFAULT_VEHTYPE" speed="13.54" pos="177.00" lane="-15.0.00_0" slope="0.00"/>
        <vehicle id="3" x="295.51" y="195.10" angle="90.03" type="DEFAULT_VEHTYPE" speed="15.00" pos="194.04" lane="-4.0.00_0" slope="0.00"/>
        <vehicle id="4" x="365.80" y="326.60" angle="90.03" type="DEFAULT_VEHTYPE" speed="9.68" pos="17.51" lane="0.0.00_0" slope="0.00"/>
        <vehicle id="5" x="309.84" y="273.14" angle="269.99" type="DEFAULT_VEHTYPE" speed="9.34" pos="15.85" lane="10.0.00_0" slope="0.00"/>
        <vehicle id="6" x="338.81" y="82.77" angle="0.03" type="DEFAULT_VEHTYPE" speed="13.47" pos="71.61" lane="19.0.00_0" slope="0.00"/>