<?xml version="1.0" encoding="UTF-8"?>

<!-- generated on Wed Aug 14 12:00:56 2019 by Eclipse SUMO Version 1.2.0
<configuration xmlns:xsi="http://www.w3.org/2001/XMLSchema-instance" xsi:noNamespaceSchemaLocation="http://sumo.dlr.de/xsd/sumoConfiguration.xsd">

    <input>
        <net-file value="Town01.net.xml"/>
        <route-files value="trips.trips.xml"/>
    </input>

    <output>
        <netstate-dump value="test.log"/>
        <fcd-output value="Town01_Car150_3.log"/>
    </output>

    <time>
        <begin value="0"/>
        <end value="10000"/>
    </time>

</configuration>
-->

<fcd-export xmlns:xsi="http://www.w3.org/2001/XMLSchema-instance" xsi:noNamespaceSchemaLocation="http://sumo.dlr.de/xsd/fcd_file.xsd">
    <timestep time="0.00">
        <vehicle id="0" x="334.95" y="312.72" angle="180.03" type="DEFAULT_VEHTYPE" speed="0.00" pos="5.10" lane="-16.0.00_0" slope="0.00"/>
    </timestep>
    <timestep time="1.00">
        <vehicle id="0" x="334.95" y="310.93" angle="180.03" type="DEFAULT_VEHTYPE" speed="1.79" pos="6.89" lane="-16.0.00_0" slope="0.00"/>
        <vehicle id="1" x="88.45" y="181.67" angle="179.99" type="DEFAULT_VEHTYPE" speed="0.00" pos="5.10" lane="-23.0.00_0" slope="0.00"/>
    </timestep>
    <timestep time="2.00">
        <vehicle id="0" x="334.94" y="307.04" angle="180.03" type="DEFAULT_VEHTYPE" speed="3.90" pos="10.78" lane="-16.0.00_0" slope="0.00"/>
        <vehicle id="1" x="88.45" y="179.09" angle="179.99" type="DEFAULT_VEHTYPE" speed="2.58" pos="7.68" lane="-23.0.00_0" slope="0.00"/>
        <vehicle id="2" x="352.89" y="-2.00" angle="90.00" type="DEFAULT_VEHTYPE" speed="0.00" pos="5.10" lane="-7.0.00_0" slope="0.00"/>
    </timestep>
    <timestep time="3.00">
        <vehicle id="0" x="334.94" y="301.71" angle="180.03" type="DEFAULT_VEHTYPE" speed="5.32" pos="16.11" lane="-16.0.00_0" slope="0.00"/>
        <vehicle id="1" x="88.45" y="173.98" angle="179.99" type="DEFAULT_VEHTYPE" speed="5.11" pos="12.79" lane="-23.0.00_0" slope="0.00"/>
        <vehicle id="2" x="354.87" y="-2.00" angle="90.00" type="DEFAULT_VEHTYPE" speed="1.98" pos="7.08" lane="-7.0.00_0" slope="0.00"/>
        <vehicle id="3" x="338.85" y="148.06" angle="0.03" type="DEFAULT_VEHTYPE" speed="0.00" pos="5.10" lane="18.0.00_0" slope="0.00"/>
    </timestep>
    <timestep time="4.00">
        <vehicle id="0" x="334.94" y="294.09" angle="180.03" type="DEFAULT_VEHTYPE" speed="7.62" pos="23.73" lane="-16.0.00_0" slope="0.00"/>
        <vehicle id="1" x="88.45" y="166.35" angle="179.99" type="DEFAULT_VEHTYPE" speed="7.62" pos="20.42" lane="-23.0.00_0" slope="0.00"/>
        <vehicle id="2" x="358.54" y="-2.00" angle="90.00" type="DEFAULT_VEHTYPE" speed="3.67" pos="10.75" lane="-7.0.00_0" slope="0.00"/>
        <vehicle id="3" x="338.85" y="150.18" angle="0.03" type="DEFAULT_VEHTYPE" speed="2.12" pos="7.22" lane="18.0.00_0" slope="0.00"/>
        <vehicle id="4" x="139.95" y="273.12" angle="269.99" type="DEFAULT_VEHTYPE" speed="0.00" pos="5.10" lane="9.0.00_0" slope="0.00"/>
    </timestep>
    <timestep time="5.00">
        <vehicle id="0" x="334.93" y="285.03" angle="180.03" type="DEFAULT_VEHTYPE" speed="9.07" pos="32.79" lane="-16.0.00_0" slope="0.00"/>
        <vehicle id="1" x="88.46" y="156.15" angle="179.99" type="DEFAULT_VEHTYPE" speed="10.20" pos="30.62" lane="-23.0.00_0" slope="0.00"/>
        <vehicle id="2" x="363.53" y="-2.00" angle="90.00" type="DEFAULT_VEHTYPE" speed="5.00" pos="15.74" lane="-7.0.00_0" slope="0.00"/>
        <vehicle id="3" x="338.86" y="154.73" angle="0.03" type="DEFAULT_VEHTYPE" speed="4.55" pos="11.77" lane="18.0.00_0" slope="0.00"/>
        <vehicle id="4" x="137.43" y="273.12" angle="269.99" type="DEFAULT_VEHTYPE" speed="2.52" pos="7.62" lane="9.0.00_0" slope="0.00"/>
        <vehicle id="5" x="92.46" y="147.39" angle="359.99" type="DEFAULT_VEHTYPE" speed="0.00" pos="5.10" lane="23.0.00_0" slope="0.00"/>
    </timestep>
    <timestep time="6.00">
        <vehicle id="0" x="334.93" y="273.95" angle="180.03" type="DEFAULT_VEHTYPE" speed="11.08" pos="8.25" lane=":111_1_0" slope="0.00"/>
        <vehicle id="1" x="88.46" y="143.72" angle="179.99" type="DEFAULT_VEHTYPE" speed="12.44" pos="43.05" lane="-23.0.00_0" slope="0.00"/>
        <vehicle id="2" x="371.04" y="-2.00" angle="90.00" type="DEFAULT_VEHTYPE" speed="7.51" pos="23.25" lane="-7.0.00_0" slope="0.00"/>
        <vehicle id="3" x="338.86" y="161.10" angle="0.03" type="DEFAULT_VEHTYPE" speed="6.38" pos="18.15" lane="18.0.00_0" slope="0.00"/>
        <vehicle id="4" x="133.28" y="273.12" angle="269.99" type="DEFAULT_VEHTYPE" speed="4.15" pos="11.77" lane="9.0.00_0" slope="0.00"/>
        <vehicle id="5" x="92.46" y="149.40" angle="359.99" type="DEFAULT_VEHTYPE" speed="2.01" pos="7.11" lane="23.0.00_0" slope="0.00"/>
        <vehicle id="6" x="16.19" y="326.63" angle="89.98" type="DEFAULT_VEHTYPE" speed="0.00" pos="5.10" lane="3.0.00_0" slope="0.00"/>
    </timestep>
    <timestep time="7.00">
        <vehicle id="0" x="334.92" y="260.53" angle="180.03" type="DEFAULT_VEHTYPE" speed="13.42" pos="21.67" lane=":111_1_0" slope="0.00"/>
        <vehicle id="1" x="88.46" y="131.75" angle="180.00" type="DEFAULT_VEHTYPE" speed="11.97" pos="10.53" lane=":128_0_0" slope="0.00"/>
        <vehicle id="2" x="380.62" y="-2.00" angle="90.00" type="DEFAULT_VEHTYPE" speed="9.58" pos="32.83" lane="-7.0.00_0" slope="0.00"/>
        <vehicle id="3" x="338.86" y="169.59" angle="0.03" type="DEFAULT_VEHTYPE" speed="8.49" pos="26.64" lane="18.0.00_0" slope="0.00"/>
        <vehicle id="4" x="127.58" y="273.12" angle="269.99" type="DEFAULT_VEHTYPE" speed="5.70" pos="17.47" lane="9.0.00_0" slope="0.00"/>
        <vehicle id="5" x="92.46" y="153.24" angle="359.99" type="DEFAULT_VEHTYPE" speed="3.84" pos="10.95" lane="23.0.00_0" slope="0.00"/>
        <vehicle id="6" x="17.57" y="326.63" angle="89.98" type="DEFAULT_VEHTYPE" speed="1.38" pos="6.48" lane="3.0.00_0" slope="0.00"/>
        <vehicle id="7" x="154.12" y="312.80" angle="180.08" type="DEFAULT_VEHTYPE" speed="0.00" pos="5.10" lane="-25.0.00_0" slope="0.00"/>
    </timestep>
    <timestep time="8.00">
        <vehicle id="0" x="334.91" y="246.97" angle="180.03" type="DEFAULT_VEHTYPE" speed="13.56" pos="12.61" lane="-17.0.00_0" slope="0.00"/>
        <vehicle id="1" x="88.46" y="118.81" angle="180.00" type="DEFAULT_VEHTYPE" speed="12.94" pos="1.47" lane="-24.0.00_0" slope="0.00"/>
        <vehicle id="2" x="391.33" y="-0.07" angle="69.06" type="DEFAULT_VEHTYPE" speed="11.09" pos="7.40" lane="14.0.00_0" slope="0.00"/>
        <vehicle id="3" x="338.87" y="180.55" angle="0.03" type="DEFAULT_VEHTYPE" speed="10.96" pos="37.60" lane="18.0.00_0" slope="0.00"/>
        <vehicle id="4" x="119.35" y="273.11" angle="269.99" type="DEFAULT_VEHTYPE" speed="8.23" pos="25.70" lane="9.0.00_0" slope="0.00"/>
        <vehicle id="5" x="92.46" y="158.61" angle="359.99" type="DEFAULT_VEHTYPE" speed="5.37" pos="16.32" lane="23.0.00_0" slope="0.00"/>
        <vehicle id="6" x="21.46" y="326.63" angle="89.98" type="DEFAULT_VEHTYPE" speed="3.90" pos="10.37" lane="3.0.00_0" slope="0.00"/>
        <vehicle id="7" x="154.12" y="310.70" angle="180.08" type="DEFAULT_VEHTYPE" speed="2.10" pos="7.20" lane="-25.0.00_0" slope="0.00"/>
        <vehicle id="8" x="88.44" y="255.36" angle="179.99" type="DEFAULT_VEHTYPE" speed="0.00" pos="5.10" lane="-22.0.00_0" slope="0.00"/>
    </timestep>
    <timestep time="9.00">
        <vehicle id="0" x="334.90" y="233.53" angle="180.03" type="DEFAULT_VEHTYPE" speed="13.44" pos="26.05" lane="-17.0.00_0" slope="0.00"/>
        <vehicle id="1" x="88.46" y="106.71" angle="179.99" type="DEFAULT_VEHTYPE" speed="12.10" pos="13.57" lane="-24.0.00_0" slope="0.00"/>
        <vehicle id="2" x="396.41" y="11.16" angle="3.99" type="DEFAULT_VEHTYPE" speed="13.12" pos="1.09" lane="-8.0.00_0" slope="0.00"/>
        <vehicle id="3" x="338.88" y="194.01" angle="0.05" type="DEFAULT_VEHTYPE" speed="13.47" pos="9.07" lane=":139_2_0" slope="0.00"/>
        <vehicle id="4" x="109.90" y="273.11" angle="269.99" type="DEFAULT_VEHTYPE" speed="9.44" pos="35.15" lane="9.0.00_0" slope="0.00"/>
        <vehicle id="5" x="92.45" y="166.40" angle="359.99" type="DEFAULT_VEHTYPE" speed="7.80" pos="24.12" lane="23.0.00_0" slope="0.00"/>
        <vehicle id="6" x="27.71" y="326.63" angle="89.98" type="DEFAULT_VEHTYPE" speed="6.25" pos="16.62" lane="3.0.00_0" slope="0.00"/>
        <vehicle id="7" x="154.11" y="306.99" angle="180.08" type="DEFAULT_VEHTYPE" speed="3.71" pos="10.91" lane="-25.0.00_0" slope="0.00"/>
        <vehicle id="8" x="88.44" y="252.81" angle="179.99" type="DEFAULT_VEHTYPE" speed="2.55" pos="7.65" lane="-22.0.00_0" slope="0.00"/>
    </timestep>
    <timestep time="10.00">
        <vehicle id="0" x="334.90" y="219.52" angle="180.03" type="DEFAULT_VEHTYPE" speed="14.00" pos="40.06" lane="-17.0.00_0" slope="0.00"/>
        <vehicle id="1" x="88.46" y="94.39" angle="179.99" type="DEFAULT_VEHTYPE" speed="12.32" pos="25.89" lane="-24.0.00_0" slope="0.00"/>
        <vehicle id="10" x="379.55" y="330.59" angle="270.03" type="DEFAULT_VEHTYPE" speed="0.00" pos="5.10" lane="-0.0.00_0" slope="0.00"/>
        <vehicle id="2" x="396.40" y="23.91" angle="359.89" type="DEFAULT_VEHTYPE" speed="12.75" pos="13.84" lane="-8.0.00_0" slope="0.00"/>
        <vehicle id="3" x="338.89" y="208.77" angle="0.05" type="DEFAULT_VEHTYPE" speed="14.76" pos="0.74" lane="17.0.00_0" slope="0.00"/>
        <vehicle id="4" x="104.20" y="273.11" angle="269.99" type="DEFAULT_VEHTYPE" speed="5.71" pos="40.85" lane="9.0.00_0" slope="0.00"/>
        <vehicle id="5" x="92.45" y="175.64" angle="359.99" type="DEFAULT_VEHTYPE" speed="9.24" pos="33.36" lane="23.0.00_0" slope="0.00"/>
        <vehicle id="6" x="36.17" y="326.64" angle="89.98" type="DEFAULT_VEHTYPE" speed="8.46" pos="25.08" lane="3.0.00_0" slope="0.00"/>
        <vehicle id="7" x="154.11" y="300.93" angle="180.08" type="DEFAULT_VEHTYPE" speed="6.06" pos="16.97" lane="-25.0.00_0" slope="0.00"/>
        <vehicle id="8" x="88.44" y="248.05" angle="179.99" type="DEFAULT_VEHTYPE" speed="4.76" pos="12.41" lane="-22.0.00_0" slope="0.00"/>
        <vehicle id="9" x="154.12" y="312.80" angle="180.08" type="DEFAULT_VEHTYPE" speed="0.00" pos="5.10" lane="-25.0.00_0" slope="0.00"/>
    </timestep>
    <timestep time="11.00">
        <vehicle id="0" x="334.89" y="205.37" angle="180.04" type="DEFAULT_VEHTYPE" speed="14.15" pos="2.66" lane=":139_1_0" slope="0.00"/>
        <vehicle id="1" x="88.47" y="82.10" angle="179.99" type="DEFAULT_VEHTYPE" speed="12.29" pos="38.18" lane="-24.0.00_0" slope="0.00"/>
        <vehicle id="10" x="377.97" y="330.59" angle="270.03" type="DEFAULT_VEHTYPE" speed="1.58" pos="6.68" lane="-0.0.00_0" slope="0.00"/>
        <vehicle id="11" x="320.59" y="330.62" angle="270.00" type="DEFAULT_VEHTYPE" speed="0.00" pos="5.10" lane="-1.0.00_0" slope="0.00"/>
        <vehicle id="2" x="396.40" y="37.85" angle="0.00" type="DEFAULT_VEHTYPE" speed="13.93" pos="27.78" lane="-8.0.00_0" slope="0.00"/>
        <vehicle id="3" x="338.90" y="223.70" angle="0.03" type="DEFAULT_VEHTYPE" speed="14.93" pos="15.67" lane="17.0.00_0" slope="0.00"/>
        <vehicle id="4" x="96.79" y="274.14" angle="282.00" type="DEFAULT_VEHTYPE" speed="7.57" pos="4.82" lane=":184_2_0" slope="0.00"/>
        <vehicle id="5" x="92.45" y="186.35" angle="359.99" type="DEFAULT_VEHTYPE" speed="10.71" pos="44.07" lane="23.0.00_0" slope="0.00"/>
        <vehicle id="6" x="45.99" y="326.64" angle="89.98" type="DEFAULT_VEHTYPE" speed="9.82" pos="34.90" lane="3.0.00_0" slope="0.00"/>
        <vehicle id="7" x="154.09" y="292.61" angle="180.08" type="DEFAULT_VEHTYPE" speed="8.32" pos="25.29" lane="-25.0.00_0" slope="0.00"/>
        <vehicle id="8" x="88.44" y="240.87" angle="179.99" type="DEFAULT_VEHTYPE" speed="7.17" pos="19.58" lane="-22.0.00_0" slope="0.00"/>
        <vehicle id="9" x="154.12" y="310.97" angle="180.08" type="DEFAULT_VEHTYPE" speed="1.83" pos="6.93" lane="-25.0.00_0" slope="0.00"/>
    </timestep>
    <timestep time="12.00">
        <vehicle id="0" x="334.88" y="191.55" angle="180.05" type="DEFAULT_VEHTYPE" speed="13.82" pos="16.48" lane=":139_1_0" slope="0.00"/>
        <vehicle id="1" x="88.47" y="70.20" angle="179.99" type="DEFAULT_VEHTYPE" speed="11.90" pos="50.08" lane="-24.0.00_0" slope="0.00"/>
        <vehicle id="10" x="374.01" y="330.60" angle="270.03" type="DEFAULT_VEHTYPE" speed="3.96" pos="10.64" lane="-0.0.00_0" slope="0.00"/>
        <vehicle id="11" x="318.86" y="330.63" angle="270.06" type="DEFAULT_VEHTYPE" speed="1.73" pos="6.83" lane="-1.0.00_0" slope="0.00"/>
        <vehicle id="2" x="396.39" y="51.55" angle="359.89" type="DEFAULT_VEHTYPE" speed="13.70" pos="41.48" lane="-8.0.00_0" slope="0.00"/>
        <vehicle id="3" x="338.91" y="238.00" angle="0.03" type="DEFAULT_VEHTYPE" speed="14.30" pos="29.97" lane="17.0.00_0" slope="0.00"/>
        <vehicle id="4" x="92.81" y="279.76" angle="334.97" type="DEFAULT_VEHTYPE" speed="7.26" pos="12.08" lane=":184_2_0" slope="0.00"/>
        <vehicle id="5" x="92.45" y="196.72" angle="0.00" type="DEFAULT_VEHTYPE" speed="10.37" pos="9.95" lane=":156_5_0" slope="0.00"/>
        <vehicle id="6" x="58.15" y="326.64" angle="89.98" type="DEFAULT_VEHTYPE" speed="12.16" pos="47.06" lane="3.0.00_0" slope="0.00"/>
        <vehicle id="7" x="154.08" y="285.42" angle="180.08" type="DEFAULT_VEHTYPE" speed="7.19" pos="32.48" lane="-25.0.00_0" slope="0.00"/>
        <vehicle id="8" x="88.45" y="231.54" angle="179.99" type="DEFAULT_VEHTYPE" speed="9.33" pos="28.91" lane="-22.0.00_0" slope="0.00"/>
        <vehicle id="9" x="154.12" y="307.72" angle="180.08" type="DEFAULT_VEHTYPE" speed="3.25" pos="10.18" lane="-25.0.00_0" slope="0.00"/>
    </timestep>
    <timestep time="13.00">
        <vehicle id="0" x="334.87" y="177.68" angle="180.03" type="DEFAULT_VEHTYPE" speed="13.87" pos="7.26" lane="-18.0.00_0" slope="0.00"/>
        <vehicle id="1" x="88.47" y="57.29" angle="179.99" type="DEFAULT_VEHTYPE" speed="12.92" pos="63.00" lane="-24.0.00_0" slope="0.00"/>
        <vehicle id="10" x="368.45" y="330.60" angle="270.03" type="DEFAULT_VEHTYPE" speed="5.57" pos="16.20" lane="-0.0.00_0" slope="0.00"/>
        <vehicle id="11" x="315.63" y="330.63" angle="270.11" type="DEFAULT_VEHTYPE" speed="3.23" pos="10.06" lane="-1.0.00_0" slope="0.00"/>
        <vehicle id="13" x="389.29" y="-1.11" angle="79.65" type="DEFAULT_VEHTYPE" speed="0.00" pos="5.10" lane="14.0.00_0" slope="0.00"/>
        <vehicle id="2" x="396.39" y="64.77" angle="0.00" type="DEFAULT_VEHTYPE" speed="13.22" pos="54.70" lane="-8.0.00_0" slope="0.00"/>
        <vehicle id="3" x="338.92" y="252.99" angle="0.03" type="DEFAULT_VEHTYPE" speed="14.99" pos="44.96" lane="17.0.00_0" slope="0.00"/>
        <vehicle id="4" x="92.44" y="286.95" angle="359.19" type="DEFAULT_VEHTYPE" speed="7.21" pos="4.49" lane="21.0.00_0" slope="0.00"/>
        <vehicle id="5" x="92.45" y="207.74" angle="0.00" type="DEFAULT_VEHTYPE" speed="11.02" pos="20.97" lane=":156_5_0" slope="0.00"/>
        <vehicle id="6" x="70.51" y="326.65" angle="89.98" type="DEFAULT_VEHTYPE" speed="12.36" pos="59.42" lane="3.0.00_0" slope="0.00"/>
        <vehicle id="7" x="154.81" y="277.25" angle="171.98" type="DEFAULT_VEHTYPE" speed="8.23" pos="5.22" lane=":167_1_0" slope="0.00"/>
        <vehicle id="8" x="88.45" y="220.29" angle="179.99" type="DEFAULT_VEHTYPE" speed="11.25" pos="40.16" lane="-22.0.00_0" slope="0.00"/>
        <vehicle id="9" x="154.11" y="302.65" angle="180.08" type="DEFAULT_VEHTYPE" speed="5.08" pos="15.26" lane="-25.0.00_0" slope="0.00"/>
    </timestep>
    <timestep time="14.00">
        <vehicle id="0" x="334.86" y="163.85" angle="180.03" type="DEFAULT_VEHTYPE" speed="13.84" pos="21.10" lane="-18.0.00_0" slope="0.00"/>
        <vehicle id="1" x="88.47" y="44.95" angle="179.99" type="DEFAULT_VEHTYPE" speed="12.33" pos="75.33" lane="-24.0.00_0" slope="0.00"/>
        <vehicle id="10" x="360.63" y="330.60" angle="270.03" type="DEFAULT_VEHTYPE" speed="7.82" pos="24.02" lane="-0.0.00_0" slope="0.00"/>
        <vehicle id="11" x="309.81" y="330.63" angle="270.00" type="DEFAULT_VEHTYPE" speed="5.82" pos="15.88" lane="-1.0.00_0" slope="0.00"/>
        <vehicle id="12" x="320.59" y="330.62" angle="270.00" type="DEFAULT_VEHTYPE" speed="0.00" pos="5.10" lane="-1.0.00_0" slope="0.00"/>
        <vehicle id="13" x="391.05" y="-0.27" angle="70.75" type="DEFAULT_VEHTYPE" speed="1.95" pos="7.05" lane="14.0.00_0" slope="0.00"/>
        <vehicle id="14" x="396.41" y="15.17" angle="0.00" type="DEFAULT_VEHTYPE" speed="0.00" pos="5.10" lane="-8.0.00_0" slope="0.00"/>
        <vehicle id="2" x="396.38" y="78.45" angle="359.89" type="DEFAULT_VEHTYPE" speed="13.67" pos="68.38" lane="-8.0.00_0" slope="0.00"/>
        <vehicle id="3" x="338.92" y="267.64" angle="0.03" type="DEFAULT_VEHTYPE" speed="14.65" pos="8.06" lane=":111_2_0" slope="0.00"/>
        <vehicle id="4" x="92.44" y="295.49" angle="359.98" type="DEFAULT_VEHTYPE" speed="8.55" pos="13.04" lane="21.0.00_0" slope="0.00"/>
        <vehicle id="5" x="92.45" y="219.27" angle="359.99" type="DEFAULT_VEHTYPE" speed="11.52" pos="10.49" lane="22.0.00_0" slope="0.00"/>
        <vehicle id="6" x="79.38" y="326.65" angle="89.98" type="DEFAULT_VEHTYPE" speed="8.87" pos="68.29" lane="3.0.00_0" slope="0.00"/>
        <vehicle id="7" x="159.70" y="271.02" angle="133.96" type="DEFAULT_VEHTYPE" speed="8.22" pos="13.44" lane=":167_1_0" slope="0.00"/>
        <vehicle id="8" x="88.45" y="209.99" angle="179.99" type="DEFAULT_VEHTYPE" speed="10.30" pos="50.46" lane="-22.0.00_0" slope="0.00"/>
        <vehicle id="9" x="154.10" y="295.25" angle="180.08" type="DEFAULT_VEHTYPE" speed="7.40" pos="22.66" lane="-25.0.00_0" slope="0.00"/>
    </timestep>
    <timestep time="15.00">
        <vehicle id="0" x="334.85" y="150.65" angle="180.03" type="DEFAULT_VEHTYPE" speed="13.20" pos="34.30" lane="-18.0.00_0" slope="0.00"/>
        <vehicle id="1" x="88.48" y="31.93" angle="179.99" type="DEFAULT_VEHTYPE" speed="13.03" pos="88.36" lane="-24.0.00_0" slope="0.00"/>
        <vehicle id="10" x="350.60" y="330.61" angle="270.03" type="DEFAULT_VEHTYPE" speed="10.03" pos="34.05" lane="-0.0.00_0" slope="0.00"/>
        <vehicle id="11" x="301.59" y="330.63" angle="270.00" type="DEFAULT_VEHTYPE" speed="8.22" pos="24.10" lane="-1.0.00_0" slope="0.00"/>
        <vehicle id="12" x="318.30" y="330.63" angle="270.09" type="DEFAULT_VEHTYPE" speed="2.29" pos="7.39" lane="-1.0.00_0" slope="0.00"/>
        <vehicle id="13" x="394.36" y="2.75" angle="48.90" type="DEFAULT_VEHTYPE" speed="4.51" pos="11.57" lane="14.0.00_0" slope="0.00"/>
        <vehicle id="14" x="396.41" y="17.49" angle="0.00" type="DEFAULT_VEHTYPE" speed="2.32" pos="7.42" lane="-8.0.00_0" slope="0.00"/>
        <vehicle id="15" x="334.95" y="312.72" angle="180.03" type="DEFAULT_VEHTYPE" speed="0.00" pos="5.10" lane="-16.0.00_0" slope="0.00"/>
        <vehicle id="2" x="396.38" y="92.47" angle="0.00" type="DEFAULT_VEHTYPE" speed="14.02" pos="82.40" lane="-8.0.00_0" slope="0.00"/>
        <vehicle id="3" x="338.93" y="281.80" angle="0.03" type="DEFAULT_VEHTYPE" speed="14.17" pos="22.23" lane=":111_2_0" slope="0.00"/>
        <vehicle id="4" x="92.43" y="306.10" angle="359.98" type="DEFAULT_VEHTYPE" speed="10.61" pos="23.64" lane="21.0.00_0" slope="0.00"/>
        <vehicle id="5" x="92.45" y="229.93" angle="359.99" type="DEFAULT_VEHTYPE" speed="10.66" pos="21.15" lane="22.0.00_0" slope="0.00"/>
        <vehicle id="6" x="86.60" y="323.81" angle="120.25" type="DEFAULT_VEHTYPE" speed="8.07" pos="8.01" lane=":77_4_0" slope="0.00"/>
        <vehicle id="7" x="167.82" y="269.12" angle="97.23" type="DEFAULT_VEHTYPE" speed="8.48" pos="0.59" lane="-10.0.00_0" slope="0.00"/>
        <vehicle id="8" x="89.12" y="203.87" angle="172.30" type="DEFAULT_VEHTYPE" speed="6.16" pos="4.95" lane=":156_1_0" slope="0.00"/>
        <vehicle id="9" x="154.09" y="287.46" angle="180.08" type="DEFAULT_VEHTYPE" speed="7.79" pos="30.45" lane="-25.0.00_0" slope="0.00"/>
    </timestep>
    <timestep time="16.00">
        <vehicle id="0" x="334.71" y="141.96" angle="181.59" type="DEFAULT_VEHTYPE" speed="8.70" pos="1.01" lane=":94_0_0" slope="0.00"/>
        <vehicle id="1" x="88.48" y="18.99" angle="179.99" type="DEFAULT_VEHTYPE" speed="12.94" pos="101.30" lane="-24.0.00_0" slope="0.00"/>
        <vehicle id="10" x="343.60" y="329.97" angle="262.60" type="DEFAULT_VEHTYPE" speed="7.04" pos="4.73" lane=":43_1_0" slope="0.00"/>
        <vehicle id="11" x="290.95" y="330.64" angle="270.00" type="DEFAULT_VEHTYPE" speed="10.64" pos="34.74" lane="-1.0.00_0" slope="0.00"/>
        <vehicle id="12" x="313.97" y="330.63" angle="270.06" type="DEFAULT_VEHTYPE" speed="4.33" pos="11.72" lane="-1.0.00_0" slope="0.00"/>
        <vehicle id="13" x="396.23" y="7.28" angle="22.58" type="DEFAULT_VEHTYPE" speed="4.96" pos="16.53" lane="14.0.00_0" slope="0.00"/>
        <vehicle id="14" x="396.41" y="21.42" angle="0.00" type="DEFAULT_VEHTYPE" speed="3.93" pos="11.35" lane="-8.0.00_0" slope="0.00"/>
        <vehicle id="15" x="334.95" y="310.23" angle="180.03" type="DEFAULT_VEHTYPE" speed="2.49" pos="7.59" lane="-16.0.00_0" slope="0.00"/>
        <vehicle id="16" x="338.77" y="16.26" angle="0.03" type="DEFAULT_VEHTYPE" speed="0.00" pos="5.10" lane="19.0.00_0" slope="0.00"/>
        <vehicle id="2" x="396.38" y="105.99" angle="0.00" type="DEFAULT_VEHTYPE" speed="13.52" pos="95.92" lane="-8.0.00_0" slope="0.00"/>
        <vehicle id="3" x="338.94" y="295.92" angle="0.03" type="DEFAULT_VEHTYPE" speed="14.12" pos="13.73" lane="16.0.00_0" slope="0.00"/>
        <vehicle id="4" x="92.43" y="313.21" angle="359.98" type="DEFAULT_VEHTYPE" speed="7.12" pos="30.76" lane="21.0.00_0" slope="0.00"/>
        <vehicle id="5" x="92.44" y="241.06" angle="359.99" type="DEFAULT_VEHTYPE" speed="11.14" pos="32.29" lane="22.0.00_0" slope="0.00"/>
        <vehicle id="6" x="88.43" y="315.81" angle="175.20" type="DEFAULT_VEHTYPE" speed="8.40" pos="2.13" lane="-21.0.00_0" slope="0.00"/>
        <vehicle id="7" x="178.18" y="269.12" angle="89.99" type="DEFAULT_VEHTYPE" speed="10.36" pos="10.95" lane="-10.0.00_0" slope="0.00"/>
        <vehicle id="8" x="93.92" y="197.21" angle="135.42" type="DEFAULT_VEHTYPE" speed="8.55" pos="5.13" lane=":156_6_0" slope="0.00"/>
        <vehicle id="9" x="154.08" y="283.21" angle="180.08" type="DEFAULT_VEHTYPE" speed="4.25" pos="34.70" lane="-25.0.00_0" slope="0.00"/>
    </timestep>
    <timestep time="17.00">
        <vehicle id="0" x="331.84" y="135.37" angle="211.56" type="DEFAULT_VEHTYPE" speed="7.48" pos="8.49" lane=":94_0_0" slope="0.00"/>
        <vehicle id="10" x="336.34" y="324.29" angle="219.33" type="DEFAULT_VEHTYPE" speed="9.64" pos="6.09" lane=":43_6_0" slope="0.00"/>
        <vehicle id="11" x="278.35" y="330.64" angle="270.00" type="DEFAULT_VEHTYPE" speed="12.60" pos="47.34" lane="-1.0.00_0" slope="0.00"/>
        <vehicle id="12" x="307.60" y="330.63" angle="270.00" type="DEFAULT_VEHTYPE" speed="6.37" pos="18.09" lane="-1.0.00_0" slope="0.00"/>
        <vehicle id="13" x="396.41" y="11.85" angle="2.55" type="DEFAULT_VEHTYPE" speed="4.68" pos="1.78" lane="-8.0.00_0" slope="0.00"/>
        <vehicle id="14" x="396.40" y="27.15" angle="359.90" type="DEFAULT_VEHTYPE" speed="5.73" pos="17.08" lane="-8.0.00_0" slope="0.00"/>
        <vehicle id="15" x="334.94" y="305.66" angle="180.03" type="DEFAULT_VEHTYPE" speed="4.57" pos="12.16" lane="-16.0.00_0" slope="0.00"/>
        <vehicle id="16" x="338.77" y="18.41" angle="0.03" type="DEFAULT_VEHTYPE" speed="2.15" pos="7.25" lane="19.0.00_0" slope="0.00"/>
        <vehicle id="17" x="378.88" y="2.00" angle="270.00" type="DEFAULT_VEHTYPE" speed="0.00" pos="5.10" lane="7.0.00_0" slope="0.00"/>
        <vehicle id="2" x="396.37" y="118.82" angle="0.00" type="DEFAULT_VEHTYPE" speed="12.83" pos="108.75" lane="-8.0.00_0" slope="0.00"/>
        <vehicle id="3" x="338.94" y="307.10" angle="0.03" type="DEFAULT_VEHTYPE" speed="11.18" pos="24.91" lane="16.0.00_0" slope="0.00"/>
        <vehicle id="4" x="92.43" y="317.04" angle="359.98" type="DEFAULT_VEHTYPE" speed="3.82" pos="34.59" lane="21.0.00_0" slope="0.00"/>
        <vehicle id="5" x="92.44" y="251.46" angle="359.99" type="DEFAULT_VEHTYPE" speed="10.39" pos="42.68" lane="22.0.00_0" slope="0.00"/>
        <vehicle id="6" x="88.43" y="305.05" angle="179.98" type="DEFAULT_VEHTYPE" speed="10.76" pos="12.90" lane="-21.0.00_0" slope="0.00"/>
        <vehicle id="7" x="189.83" y="269.12" angle="89.99" type="DEFAULT_VEHTYPE" speed="11.65" pos="22.60" lane="-10.0.00_0" slope="0.00"/>
        <vehicle id="8" x="101.86" y="195.20" angle="97.84" type="DEFAULT_VEHTYPE" speed="8.34" pos="0.38" lane="-4.0.00_0" slope="0.00"/>
        <vehicle id="9" x="152.53" y="276.66" angle="196.61" type="DEFAULT_VEHTYPE" speed="6.85" pos="6.06" lane=":167_0_0" slope="0.00"/>
    </timestep>
    <timestep time="18.00">
        <vehicle id="0" x="324.43" y="133.45" angle="263.78" type="DEFAULT_VEHTYPE" speed="7.83" pos="1.30" lane="12.0.00_0" slope="0.00"/>
        <vehicle id="10" x="334.95" y="317.40" angle="187.82" type="DEFAULT_VEHTYPE" speed="7.11" pos="0.42" lane="-16.0.00_0" slope="0.00"/>
        <vehicle id="11" x="264.84" y="330.64" angle="270.00" type="DEFAULT_VEHTYPE" speed="13.51" pos="60.85" lane="-1.0.00_0" slope="0.00"/>
        <vehicle id="12" x="299.26" y="330.64" angle="270.07" type="DEFAULT_VEHTYPE" speed="8.34" pos="26.43" lane="-1.0.00_0" slope="0.00"/>
        <vehicle id="13" x="396.41" y="18.37" angle="0.00" type="DEFAULT_VEHTYPE" speed="6.52" pos="8.30" lane="-8.0.00_0" slope="0.00"/>
        <vehicle id="14" x="396.40" y="34.30" angle="0.00" type="DEFAULT_VEHTYPE" speed="7.14" pos="24.23" lane="-8.0.00_0" slope="0.00"/>
        <vehicle id="15" x="334.94" y="299.55" angle="180.03" type="DEFAULT_VEHTYPE" speed="6.11" pos="18.27" lane="-16.0.00_0" slope="0.00"/>
        <vehicle id="16" x="338.78" y="21.94" angle="0.03" type="DEFAULT_VEHTYPE" speed="3.53" pos="10.78" lane="19.0.00_0" slope="0.00"/>
        <vehicle id="17" x="376.37" y="2.00" angle="270.00" type="DEFAULT_VEHTYPE" speed="2.51" pos="7.61" lane="7.0.00_0" slope="0.00"/>
        <vehicle id="2" x="396.37" y="132.12" angle="0.00" type="DEFAULT_VEHTYPE" speed="13.30" pos="122.05" lane="-8.0.00_0" slope="0.00"/>
        <vehicle id="3" x="338.95" y="313.89" angle="0.03" type="DEFAULT_VEHTYPE" speed="6.79" pos="31.70" lane="16.0.00_0" slope="0.00"/>
        <vehicle id="4" x="93.99" y="323.05" angle="17.69" type="DEFAULT_VEHTYPE" speed="6.36" pos="5.45" lane=":77_2_0" slope="0.00"/>
        <vehicle id="5" x="92.44" y="259.28" angle="359.99" type="DEFAULT_VEHTYPE" speed="7.81" pos="50.50" lane="22.0.00_0" slope="0.00"/>
        <vehicle id="6" x="88.44" y="292.92" angle="179.98" type="DEFAULT_VEHTYPE" speed="12.13" pos="25.02" lane="-21.0.00_0" slope="0.00"/>
        <vehicle id="7" x="201.96" y="269.12" angle="89.99" type="DEFAULT_VEHTYPE" speed="12.13" pos="34.73" lane="-10.0.00_0" slope="0.00"/>
        <vehicle id="8" x="112.32" y="195.19" angle="90.03" type="DEFAULT_VEHTYPE" speed="10.46" pos="10.84" lane="-4.0.00_0" slope="0.00"/>
        <vehicle id="9" x="147.77" y="273.52" angle="241.66" type="DEFAULT_VEHTYPE" speed="5.97" pos="12.03" lane=":167_0_0" slope="0.00"/>
    </timestep>
    <timestep time="19.00">
        <vehicle id="0" x="314.69" y="133.45" angle="270.01" type="DEFAULT_VEHTYPE" speed="9.74" pos="11.04" lane="12.0.00_0" slope="0.00"/>
        <vehicle id="10" x="334.95" y="309.80" angle="180.03" type="DEFAULT_VEHTYPE" speed="7.60" pos="8.02" lane="-16.0.00_0" slope="0.00"/>
        <vehicle id="11" x="251.41" y="330.64" angle="270.00" type="DEFAULT_VEHTYPE" speed="13.44" pos="74.28" lane="-1.0.00_0" slope="0.00"/>
        <vehicle id="12" x="288.60" y="330.64" angle="270.00" type="DEFAULT_VEHTYPE" speed="10.66" pos="37.09" lane="-1.0.00_0" slope="0.00"/>
        <vehicle id="13" x="396.40" y="25.12" angle="359.89" type="DEFAULT_VEHTYPE" speed="6.75" pos="15.05" lane="-8.0.00_0" slope="0.00"/>
        <vehicle id="14" x="396.40" y="43.73" angle="0.00" type="DEFAULT_VEHTYPE" speed="9.43" pos="33.66" lane="-8.0.00_0" slope="0.00"/>
        <vehicle id="15" x="334.93" y="290.85" angle="180.03" type="DEFAULT_VEHTYPE" speed="8.70" pos="26.97" lane="-16.0.00_0" slope="0.00"/>
        <vehicle id="16" x="338.78" y="27.85" angle="0.03" type="DEFAULT_VEHTYPE" speed="5.91" pos="16.69" lane="19.0.00_0" slope="0.00"/>
        <vehicle id="17" x="371.75" y="2.00" angle="270.00" type="DEFAULT_VEHTYPE" speed="4.62" pos="12.23" lane="7.0.00_0" slope="0.00"/>
        <vehicle id="18" x="396.41" y="15.17" angle="0.00" type="DEFAULT_VEHTYPE" speed="0.00" pos="5.10" lane="-8.0.00_0" slope="0.00"/>
        <vehicle id="19" x="92.48" y="16.41" angle="359.99" type="DEFAULT_VEHTYPE" speed="0.00" pos="5.10" lane="24.0.00_0" slope="0.00"/>
        <vehicle id="2" x="396.37" y="145.33" angle="0.00" type="DEFAULT_VEHTYPE" speed="13.21" pos="135.26" lane="-8.0.00_0" slope="0.00"/>
        <vehicle id="3" x="339.96" y="322.32" angle="11.79" type="DEFAULT_VEHTYPE" speed="8.60" pos="4.67" lane=":43_2_0" slope="0.00"/>
        <vehicle id="4" x="100.21" y="326.35" angle="71.08" type="DEFAULT_VEHTYPE" speed="7.36" pos="12.81" lane=":77_2_0" slope="0.00"/>
        <vehicle id="5" x="93.89" y="265.67" angle="16.28" type="DEFAULT_VEHTYPE" speed="6.69" pos="5.50" lane=":184_4_0" slope="0.00"/>
        <vehicle id="6" x="88.44" y="283.44" angle="179.98" type="DEFAULT_VEHTYPE" speed="9.49" pos="34.51" lane="-21.0.00_0" slope="0.00"/>
        <vehicle id="7" x="213.46" y="269.13" angle="89.99" type="DEFAULT_VEHTYPE" speed="11.49" pos="46.23" lane="-10.0.00_0" slope="0.00"/>
        <vehicle id="8" x="124.51" y="195.19" angle="90.03" type="DEFAULT_VEHTYPE" speed="12.19" pos="23.03" lane="-4.0.00_0" slope="0.00"/>