<?xml version="1.0" encoding="UTF-8"?>

<!-- generated on Wed Aug 14 12:02:26 2019 by Eclipse SUMO Version 1.2.0
<configuration xmlns:xsi="http://www.w3.org/2001/XMLSchema-instance" xsi:noNamespaceSchemaLocation="http://sumo.dlr.de/xsd/sumoConfiguration.xsd">

    <input>
        <net-file value="Town01.net.xml"/>
        <route-files value="trips.trips.xml"/>
    </input>

    <output>
        <netstate-dump value="test.log"/>
        <fcd-output value="Town02_Car50_2.log"/>
    </output>

    <time>
        <begin value="0"/>
        <end value="10000"/>
    </time>

</configuration>
-->

<fcd-export xmlns:xsi="http://www.w3.org/2001/XMLSchema-instance" xsi:noNamespaceSchemaLocation="http://sumo.dlr.de/xsd/fcd_file.xsd">
    <timestep time="0.00">
        <vehicle id="0" x="389.29" y="-1.11" angle="79.65" type="DEFAULT_VEHTYPE" speed="0.00" pos="5.10" lane="14.0.00_0" slope="0.00"/>
    </timestep>
    <timestep time="1.00">
        <vehicle id="0" x="391.11" y="-0.22" angle="70.28" type="DEFAULT_VEHTYPE" speed="2.03" pos="7.13" lane="14.0.00_0" slope="0.00"/>
        <vehicle id="1" x="378.88" y="2.00" angle="270.00" type="DEFAULT_VEHTYPE" speed="0.00" pos="5.10" lane="7.0.00_0" slope="0.00"/>
    </timestep>
    <timestep time="2.00">
        <vehicle id="0" x="394.10" y="2.38" angle="51.76" type="DEFAULT_VEHTYPE" speed="3.98" pos="11.11" lane="14.0.00_0" slope="0.00"/>
        <vehicle id="1" x="376.37" y="2.00" angle="270.00" type="DEFAULT_VEHTYPE" speed="2.51" pos="7.61" lane="7.0.00_0" slope="0.00"/>
        <vehicle id="2" x="395.62" y="323.75" angle="350.47" type="DEFAULT_VEHTYPE" speed="0.00" pos="5.10" lane="11.0.00_0" slope="0.00"/>
    </timestep>
    <timestep time="3.00">
        <vehicle id="0" x="396.36" y="8.40" angle="16.46" type="DEFAULT_VEHTYPE" speed="6.54" pos="17.66" lane="14.0.00_0" slope="0.00"/>
        <vehicle id="1" x="371.75" y="2.00" angle="270.00" type="DEFAULT_VEHTYPE" speed="4.62" pos="12.23" lane="7.0.00_0" slope="0.00"/>
        <vehicle id="2" x="394.38" y="326.01" angle="337.67" type="DEFAULT_VEHTYPE" speed="2.60" pos="7.70" lane="11.0.00_0" slope="0.00"/>
        <vehicle id="3" x="106.58" y="129.47" angle="90.01" type="DEFAULT_VEHTYPE" speed="0.00" pos="5.10" lane="-12.0.00_0" slope="0.00"/>
    </timestep>
    <timestep time="4.00">
        <vehicle id="0" x="396.41" y="16.57" angle="0.00" type="DEFAULT_VEHTYPE" speed="8.27" pos="6.50" lane="-8.0.00_0" slope="0.00"/>
        <vehicle id="1" x="365.79" y="2.00" angle="270.00" type="DEFAULT_VEHTYPE" speed="5.96" pos="18.19" lane="7.0.00_0" slope="0.00"/>
        <vehicle id="2" x="390.87" y="329.20" angle="312.65" type="DEFAULT_VEHTYPE" speed="4.79" pos="12.49" lane="11.0.00_0" slope="0.00"/>
        <vehicle id="3" x="108.50" y="129.47" angle="90.01" type="DEFAULT_VEHTYPE" speed="1.92" pos="7.02" lane="-12.0.00_0" slope="0.00"/>
        <vehicle id="4" x="334.92" y="254.48" angle="180.03" type="DEFAULT_VEHTYPE" speed="0.00" pos="5.10" lane="-17.0.00_0" slope="0.00"/>
    </timestep>
    <timestep time="5.00">
        <vehicle id="0" x="396.40" y="26.16" angle="359.89" type="DEFAULT_VEHTYPE" speed="9.59" pos="16.09" lane="-8.0.00_0" slope="0.00"/>
        <vehicle id="1" x="358.20" y="2.00" angle="270.00" type="DEFAULT_VEHTYPE" speed="7.59" pos="25.78" lane="7.0.00_0" slope="0.00"/>
        <vehicle id="2" x="384.64" y="330.59" angle="279.06" type="DEFAULT_VEHTYPE" speed="6.47" pos="0.01" lane="-0.0.00_0" slope="0.00"/>
        <vehicle id="3" x="112.14" y="129.47" angle="90.01" type="DEFAULT_VEHTYPE" speed="3.64" pos="10.66" lane="-12.0.00_0" slope="0.00"/>
        <vehicle id="4" x="334.92" y="253.16" angle="180.03" type="DEFAULT_VEHTYPE" speed="1.32" pos="6.42" lane="-17.0.00_0" slope="0.00"/>
        <vehicle id="5" x="-1.97" y="313.55" angle="180.00" type="DEFAULT_VEHTYPE" speed="0.00" pos="5.10" lane="-15.0.00_0" slope="0.00"/>
    </timestep>
    <timestep time="6.00">
        <vehicle id="0" x="396.40" y="38.25" angle="0.00" type="DEFAULT_VEHTYPE" speed="12.09" pos="28.18" lane="-8.0.00_0" slope="0.00"/>
        <vehicle id="1" x="349.24" y="2.00" angle="270.00" type="DEFAULT_VEHTYPE" speed="8.96" pos="34.74" lane="7.0.00_0" slope="0.00"/>
        <vehicle id="2" x="376.58" y="330.59" angle="270.03" type="DEFAULT_VEHTYPE" speed="8.05" pos="8.07" lane="-0.0.00_0" slope="0.00"/>
        <vehicle id="3" x="117.78" y="129.47" angle="90.01" type="DEFAULT_VEHTYPE" speed="5.64" pos="16.30" lane="-12.0.00_0" slope="0.00"/>
        <vehicle id="4" x="334.91" y="249.96" angle="180.03" type="DEFAULT_VEHTYPE" speed="3.20" pos="9.62" lane="-17.0.00_0" slope="0.00"/>
        <vehicle id="5" x="-1.97" y="311.00" angle="180.00" type="DEFAULT_VEHTYPE" speed="2.55" pos="7.65" lane="-15.0.00_0" slope="0.00"/>
        <vehicle id="6" x="334.95" y="312.72" angle="180.03" type="DEFAULT_VEHTYPE" speed="0.00" pos="5.10" lane="-16.0.00_0" slope="0.00"/>
    </timestep>
    <timestep time="7.00">
        <vehicle id="0" x="396.39" y="52.60" angle="359.89" type="DEFAULT_VEHTYPE" speed="14.36" pos="42.53" lane="-8.0.00_0" slope="0.00"/>
        <vehicle id="1" x="338.17" y="2.00" angle="270.00" type="DEFAULT_VEHTYPE" speed="11.06" pos="9.62" lane=":60_3_0" slope="0.00"/>
        <vehicle id="2" x="366.15" y="330.60" angle="270.03" type="DEFAULT_VEHTYPE" speed="10.43" pos="18.50" lane="-0.0.00_0" slope="0.00"/>
        <vehicle id="3" x="125.87" y="129.47" angle="90.01" type="DEFAULT_VEHTYPE" speed="8.09" pos="24.39" lane="-12.0.00_0" slope="0.00"/>
        <vehicle id="4" x="334.91" y="244.74" angle="180.03" type="DEFAULT_VEHTYPE" speed="5.22" pos="14.84" lane="-17.0.00_0" slope="0.00"/>
        <vehicle id="5" x="-1.97" y="305.92" angle="180.05" type="DEFAULT_VEHTYPE" speed="5.08" pos="12.73" lane="-15.0.00_0" slope="0.00"/>
        <vehicle id="6" x="334.95" y="310.93" angle="180.03" type="DEFAULT_VEHTYPE" speed="1.79" pos="6.89" lane="-16.0.00_0" slope="0.00"/>
    </timestep>
    <timestep time="8.00">
        <vehicle id="0" x="396.39" y="66.51" angle="0.00" type="DEFAULT_VEHTYPE" speed="13.91" pos="56.44" lane="-8.0.00_0" slope="0.00"/>
        <vehicle id="1" x="326.40" y="2.00" angle="270.00" type="DEFAULT_VEHTYPE" speed="11.77" pos="21.39" lane=":60_3_0" slope="0.00"/>
        <vehicle id="2" x="354.11" y="330.61" angle="270.03" type="DEFAULT_VEHTYPE" speed="12.04" pos="30.54" lane="-0.0.00_0" slope="0.00"/>
        <vehicle id="3" x="136.15" y="129.47" angle="90.01" type="DEFAULT_VEHTYPE" speed="10.28" pos="34.67" lane="-12.0.00_0" slope="0.00"/>
        <vehicle id="4" x="334.91" y="237.84" angle="180.03" type="DEFAULT_VEHTYPE" speed="6.90" pos="21.74" lane="-17.0.00_0" slope="0.00"/>
        <vehicle id="5" x="-1.98" y="298.84" angle="180.00" type="DEFAULT_VEHTYPE" speed="7.07" pos="19.81" lane="-15.0.00_0" slope="0.00"/>
        <vehicle id="6" x="334.94" y="307.04" angle="180.03" type="DEFAULT_VEHTYPE" speed="3.90" pos="10.78" lane="-16.0.00_0" slope="0.00"/>
        <vehicle id="8" x="320.60" y="199.09" angle="270.03" type="DEFAULT_VEHTYPE" speed="0.00" pos="5.10" lane="4.0.00_0" slope="0.00"/>
    </timestep>
    <timestep time="9.00">
        <vehicle id="0" x="396.38" y="80.88" angle="0.00" type="DEFAULT_VEHTYPE" speed="14.36" pos="70.81" lane="-8.0.00_0" slope="0.00"/>
        <vehicle id="1" x="313.91" y="2.00" angle="270.00" type="DEFAULT_VEHTYPE" speed="12.49" pos="11.87" lane="6.0.00_0" slope="0.00"/>
        <vehicle id="2" x="345.32" y="330.20" angle="265.33" type="DEFAULT_VEHTYPE" speed="8.82" pos="3.00" lane=":43_1_0" slope="0.00"/>
        <vehicle id="3" x="148.32" y="129.47" angle="90.01" type="DEFAULT_VEHTYPE" speed="12.17" pos="46.84" lane="-12.0.00_0" slope="0.00"/>
        <vehicle id="4" x="334.90" y="228.65" angle="180.03" type="DEFAULT_VEHTYPE" speed="9.19" pos="30.93" lane="-17.0.00_0" slope="0.00"/>
        <vehicle id="5" x="-1.98" y="289.59" angle="180.00" type="DEFAULT_VEHTYPE" speed="9.25" pos="29.06" lane="-15.0.00_0" slope="0.00"/>
        <vehicle id="6" x="334.94" y="301.71" angle="180.03" type="DEFAULT_VEHTYPE" speed="5.32" pos="16.11" lane="-16.0.00_0" slope="0.00"/>
        <vehicle id="8" x="318.28" y="199.09" angle="270.03" type="DEFAULT_VEHTYPE" speed="2.32" pos="7.42" lane="4.0.00_0" slope="0.00"/>
        <vehicle id="9" x="15.32" y="-1.93" angle="90.03" type="DEFAULT_VEHTYPE" speed="0.00" pos="5.10" lane="-5.0.00_0" slope="0.00"/>
    </timestep>
    <timestep time="10.00">
        <vehicle id="0" x="396.38" y="95.59" angle="0.00" type="DEFAULT_VEHTYPE" speed="14.71" pos="85.52" lane="-8.0.00_0" slope="0.00"/>
        <vehicle id="1" x="301.81" y="2.00" angle="270.00" type="DEFAULT_VEHTYPE" speed="12.10" pos="23.97" lane="6.0.00_0" slope="0.00"/>
        <vehicle id="10" x="353.39" y="326.61" angle="90.03" type="DEFAULT_VEHTYPE" speed="0.00" pos="5.10" lane="0.0.00_0" slope="0.00"/>
        <vehicle id="2" x="341.21" y="329.09" angle="255.90" type="DEFAULT_VEHTYPE" speed="4.32" pos="7.32" lane=":43_1_0" slope="0.00"/>
        <vehicle id="3" x="162.76" y="129.46" angle="90.01" type="DEFAULT_VEHTYPE" speed="14.43" pos="61.27" lane="-12.0.00_0" slope="0.00"/>
        <vehicle id="4" x="334.90" y="217.29" angle="180.03" type="DEFAULT_VEHTYPE" speed="11.36" pos="42.29" lane="-17.0.00_0" slope="0.00"/>
        <vehicle id="5" x="-1.99" y="278.24" angle="180.11" type="DEFAULT_VEHTYPE" speed="11.35" pos="40.41" lane="-15.0.00_0" slope="0.00"/>
        <vehicle id="6" x="334.94" y="294.09" angle="180.03" type="DEFAULT_VEHTYPE" speed="7.62" pos="23.73" lane="-16.0.00_0" slope="0.00"/>
        <vehicle id="7" x="320.68" y="2.00" angle="270.00" type="DEFAULT_VEHTYPE" speed="0.00" pos="5.10" lane="6.0.00_0" slope="0.00"/>
        <vehicle id="8" x="313.49" y="199.10" angle="270.03" type="DEFAULT_VEHTYPE" speed="4.78" pos="12.21" lane="4.0.00_0" slope="0.00"/>
        <vehicle id="9" x="17.53" y="-1.93" angle="90.03" type="DEFAULT_VEHTYPE" speed="2.21" pos="7.31" lane="-5.0.00_0" slope="0.00"/>
    </timestep>
    <timestep time="11.00">
        <vehicle id="0" x="396.38" y="110.03" angle="359.95" type="DEFAULT_VEHTYPE" speed="14.44" pos="99.96" lane="-8.0.00_0" slope="0.00"/>
        <vehicle id="1" x="289.01" y="2.00" angle="270.00" type="DEFAULT_VEHTYPE" speed="12.80" pos="36.77" lane="6.0.00_0" slope="0.00"/>
        <vehicle id="10" x="355.14" y="326.61" angle="90.03" type="DEFAULT_VEHTYPE" speed="1.75" pos="6.85" lane="0.0.00_0" slope="0.00"/>
        <vehicle id="11" x="391.20" y="5.22" angle="194.33" type="DEFAULT_VEHTYPE" speed="0.00" pos="5.10" lane="-14.0.00_0" slope="0.00"/>
        <vehicle id="2" x="336.88" y="325.16" angle="225.15" type="DEFAULT_VEHTYPE" speed="6.03" pos="5.06" lane=":43_6_0" slope="0.00"/>
        <vehicle id="3" x="177.08" y="129.46" angle="90.01" type="DEFAULT_VEHTYPE" speed="14.32" pos="75.60" lane="-12.0.00_0" slope="0.00"/>
        <vehicle id="4" x="334.89" y="203.44" angle="180.05" type="DEFAULT_VEHTYPE" speed="13.84" pos="4.59" lane=":139_1_0" slope="0.00"/>
        <vehicle id="5" x="-1.99" y="267.29" angle="180.00" type="DEFAULT_VEHTYPE" speed="10.95" pos="51.36" lane="-15.0.00_0" slope="0.00"/>
        <vehicle id="6" x="334.93" y="285.03" angle="180.03" type="DEFAULT_VEHTYPE" speed="9.07" pos="32.79" lane="-16.0.00_0" slope="0.00"/>
        <vehicle id="7" x="318.10" y="2.00" angle="270.00" type="DEFAULT_VEHTYPE" speed="2.58" pos="7.68" lane="6.0.00_0" slope="0.00"/>
        <vehicle id="8" x="306.98" y="199.10" angle="270.03" type="DEFAULT_VEHTYPE" speed="6.51" pos="18.72" lane="4.0.00_0" slope="0.00"/>
        <vehicle id="9" x="22.03" y="-1.94" angle="90.03" type="DEFAULT_VEHTYPE" speed="4.51" pos="11.81" lane="-5.0.00_0" slope="0.00"/>
    </timestep>
    <timestep time="12.00">
        <vehicle id="0" x="396.37" y="124.24" angle="0.00" type="DEFAULT_VEHTYPE" speed="14.21" pos="114.17" lane="-8.0.00_0" slope="0.00"/>
        <vehicle id="1" x="276.15" y="2.00" angle="270.00" type="DEFAULT_VEHTYPE" speed="12.86" pos="49.63" lane="6.0.00_0" slope="0.00"/>
        <vehicle id="10" x="359.11" y="326.60" angle="90.03" type="DEFAULT_VEHTYPE" speed="3.97" pos="10.82" lane="0.0.00_0" slope="0.00"/>
        <vehicle id="11" x="390.33" y="4.17" angle="204.67" type="DEFAULT_VEHTYPE" speed="1.38" pos="6.48" lane="-14.0.00_0" slope="0.00"/>
        <vehicle id="12" x="139.92" y="330.66" angle="270.00" type="DEFAULT_VEHTYPE" speed="0.00" pos="5.10" lane="-2.0.00_0" slope="0.00"/>
        <vehicle id="2" x="334.95" y="317.76" angle="188.43" type="DEFAULT_VEHTYPE" speed="7.78" pos="0.06" lane="-16.0.00_0" slope="0.00"/>
        <vehicle id="3" x="192.05" y="129.46" angle="90.01" type="DEFAULT_VEHTYPE" speed="14.96" pos="90.56" lane="-12.0.00_0" slope="0.00"/>
        <vehicle id="4" x="334.87" y="190.35" angle="180.05" type="DEFAULT_VEHTYPE" speed="13.09" pos="17.68" lane=":139_1_0" slope="0.00"/>
        <vehicle id="5" x="-1.99" y="255.99" angle="180.00" type="DEFAULT_VEHTYPE" speed="11.30" pos="62.66" lane="-15.0.00_0" slope="0.00"/>
        <vehicle id="6" x="334.93" y="273.95" angle="180.03" type="DEFAULT_VEHTYPE" speed="11.08" pos="8.25" lane=":111_1_0" slope="0.00"/>
        <vehicle id="7" x="313.06" y="2.00" angle="270.00" type="DEFAULT_VEHTYPE" speed="5.04" pos="12.72" lane="6.0.00_0" slope="0.00"/>
        <vehicle id="8" x="298.68" y="199.10" angle="270.03" type="DEFAULT_VEHTYPE" speed="8.30" pos="27.02" lane="4.0.00_0" slope="0.00"/>
        <vehicle id="9" x="28.94" y="-1.94" angle="90.03" type="DEFAULT_VEHTYPE" speed="6.90" pos="18.72" lane="-5.0.00_0" slope="0.00"/>
    </timestep>
    <timestep time="13.00">
        <vehicle id="0" x="396.37" y="137.98" angle="0.00" type="DEFAULT_VEHTYPE" speed="13.74" pos="127.91" lane="-8.0.00_0" slope="0.00"/>
        <vehicle id="1" x="264.32" y="2.00" angle="270.00" type="DEFAULT_VEHTYPE" speed="11.83" pos="61.46" lane="6.0.00_0" slope="0.00"/>
        <vehicle id="10" x="364.76" y="326.60" angle="90.03" type="DEFAULT_VEHTYPE" speed="5.65" pos="16.47" lane="0.0.00_0" slope="0.00"/>
        <vehicle id="11" x="388.05" y="2.73" angle="228.19" type="DEFAULT_VEHTYPE" speed="2.70" pos="9.18" lane="-14.0.00_0" slope="0.00"/>
        <vehicle id="12" x="137.93" y="330.66" angle="270.00" type="DEFAULT_VEHTYPE" speed="1.99" pos="7.09" lane="-2.0.00_0" slope="0.00"/>
        <vehicle id="13" x="139.95" y="273.12" angle="269.99" type="DEFAULT_VEHTYPE" speed="0.00" pos="5.10" lane="9.0.00_0" slope="0.00"/>
        <vehicle id="2" x="334.94" y="307.49" angle="180.03" type="DEFAULT_VEHTYPE" speed="10.27" pos="10.33" lane="-16.0.00_0" slope="0.00"/>
        <vehicle id="3" x="206.22" y="129.46" angle="90.01" type="DEFAULT_VEHTYPE" speed="14.17" pos="104.74" lane="-12.0.00_0" slope="0.00"/>
        <vehicle id="4" x="334.87" y="176.13" angle="180.03" type="DEFAULT_VEHTYPE" speed="14.23" pos="8.82" lane="-18.0.00_0" slope="0.00"/>
        <vehicle id="5" x="-2.00" y="244.69" angle="180.00" type="DEFAULT_VEHTYPE" speed="11.31" pos="73.96" lane="-15.0.00_0" slope="0.00"/>
        <vehicle id="6" x="334.92" y="260.53" angle="180.03" type="DEFAULT_VEHTYPE" speed="13.42" pos="21.67" lane=":111_1_0" slope="0.00"/>
        <vehicle id="7" x="305.68" y="2.00" angle="270.00" type="DEFAULT_VEHTYPE" speed="7.38" pos="20.10" lane="6.0.00_0" slope="0.00"/>
        <vehicle id="8" x="288.69" y="199.11" angle="270.03" type="DEFAULT_VEHTYPE" speed="9.99" pos="37.01" lane="4.0.00_0" slope="0.00"/>
        <vehicle id="9" x="37.53" y="-1.95" angle="90.03" type="DEFAULT_VEHTYPE" speed="8.59" pos="27.31" lane="-5.0.00_0" slope="0.00"/>
    </timestep>
    <timestep time="14.00">
        <vehicle id="0" x="396.37" y="151.49" angle="0.00" type="DEFAULT_VEHTYPE" speed="13.51" pos="141.42" lane="-8.0.00_0" slope="0.00"/>
        <vehicle id="1" x="251.37" y="2.00" angle="270.00" type="DEFAULT_VEHTYPE" speed="12.95" pos="74.41" lane="6.0.00_0" slope="0.00"/>
        <vehicle id="10" x="372.47" y="326.60" angle="90.03" type="DEFAULT_VEHTYPE" speed="7.71" pos="24.18" lane="0.0.00_0" slope="0.00"/>
        <vehicle id="11" x="384.02" y="2.00" angle="257.37" type="DEFAULT_VEHTYPE" speed="4.14" pos="0.29" lane=":7.14_0_0" slope="0.00"/>
        <vehicle id="12" x="134.08" y="330.66" angle="270.00" type="DEFAULT_VEHTYPE" speed="3.84" pos="10.93" lane="-2.0.00_0" slope="0.00"/>
        <vehicle id="13" x="137.43" y="273.12" angle="269.99" type="DEFAULT_VEHTYPE" speed="2.52" pos="7.62" lane="9.0.00_0" slope="0.00"/>
        <vehicle id="14" x="391.10" y="323.72" angle="123.67" type="DEFAULT_VEHTYPE" speed="0.00" pos="5.10" lane="-11.0.00_0" slope="0.00"/>
        <vehicle id="2" x="334.94" y="295.13" angle="180.03" type="DEFAULT_VEHTYPE" speed="12.35" pos="22.69" lane="-16.0.00_0" slope="0.00"/>
        <vehicle id="3" x="220.42" y="129.46" angle="90.01" type="DEFAULT_VEHTYPE" speed="14.20" pos="118.93" lane="-12.0.00_0" slope="0.00"/>
        <vehicle id="4" x="334.86" y="162.70" angle="180.03" type="DEFAULT_VEHTYPE" speed="13.43" pos="22.24" lane="-18.0.00_0" slope="0.00"/>
        <vehicle id="5" x="-2.00" y="233.53" angle="180.00" type="DEFAULT_VEHTYPE" speed="11.16" pos="85.12" lane="-15.0.00_0" slope="0.00"/>
        <vehicle id="6" x="334.91" y="247.16" angle="180.03" type="DEFAULT_VEHTYPE" speed="13.37" pos="12.42" lane="-17.0.00_0" slope="0.00"/>
        <vehicle id="7" x="296.25" y="2.00" angle="270.00" type="DEFAULT_VEHTYPE" speed="9.43" pos="29.53" lane="6.0.00_0" slope="0.00"/>
        <vehicle id="8" x="276.43" y="199.11" angle="270.03" type="DEFAULT_VEHTYPE" speed="12.26" pos="49.27" lane="4.0.00_0" slope="0.00"/>
        <vehicle id="9" x="47.83" y="-1.95" angle="90.03" type="DEFAULT_VEHTYPE" speed="10.31" pos="37.61" lane="-5.0.00_0" slope="0.00"/>
    </timestep>
    <timestep time="15.00">
        <vehicle id="0" x="396.36" y="165.42" angle="0.00" type="DEFAULT_VEHTYPE" speed="13.93" pos="155.35" lane="-8.0.00_0" slope="0.00"/>
        <vehicle id="1" x="238.62" y="2.01" angle="270.05" type="DEFAULT_VEHTYPE" speed="12.74" pos="87.16" lane="6.0.00_0" slope="0.00"/>
        <vehicle id="10" x="379.95" y="326.59" angle="90.03" type="DEFAULT_VEHTYPE" speed="7.48" pos="31.66" lane="0.0.00_0" slope="0.00"/>
        <vehicle id="11" x="377.67" y="2.00" angle="270.00" type="DEFAULT_VEHTYPE" speed="6.34" pos="6.31" lane="7.0.00_0" slope="0.00"/>
        <vehicle id="12" x="127.69" y="330.66" angle="270.00" type="DEFAULT_VEHTYPE" speed="6.39" pos="17.33" lane="-2.0.00_0" slope="0.00"/>
        <vehicle id="13" x="133.28" y="273.12" angle="269.99" type="DEFAULT_VEHTYPE" speed="4.15" pos="11.77" lane="9.0.00_0" slope="0.00"/>
        <vehicle id="14" x="392.15" y="321.51" angle="144.07" type="DEFAULT_VEHTYPE" speed="2.47" pos="7.57" lane="-11.0.00_0" slope="0.00"/>
        <vehicle id="2" x="334.93" y="282.16" angle="180.03" type="DEFAULT_VEHTYPE" speed="12.97" pos="0.04" lane=":111_1_0" slope="0.00"/>
        <vehicle id="3" x="234.95" y="129.46" angle="90.01" type="DEFAULT_VEHTYPE" speed="14.53" pos="133.47" lane="-12.0.00_0" slope="0.00"/>
        <vehicle id="4" x="334.85" y="149.75" angle="180.03" type="DEFAULT_VEHTYPE" speed="12.95" pos="35.19" lane="-18.0.00_0" slope="0.00"/>
        <vehicle id="5" x="-1.99" y="222.35" angle="180.00" type="DEFAULT_VEHTYPE" speed="11.18" pos="96.30" lane="-15.0.00_0" slope="0.00"/>
        <vehicle id="6" x="334.90" y="233.51" angle="180.03" type="DEFAULT_VEHTYPE" speed="13.65" pos="26.07" lane="-17.0.00_0" slope="0.00"/>
        <vehicle id="7" x="284.34" y="2.00" angle="270.00" type="DEFAULT_VEHTYPE" speed="11.90" pos="41.44" lane="6.0.00_0" slope="0.00"/>
        <vehicle id="8" x="264.52" y="199.12" angle="270.03" type="DEFAULT_VEHTYPE" speed="11.91" pos="61.18" lane="4.0.00_0" slope="0.00"/>
        <vehicle id="9" x="58.88" y="-1.96" angle="90.03" type="DEFAULT_VEHTYPE" speed="11.04" pos="48.66" lane="-5.0.00_0" slope="0.00"/>
    </timestep>
    <timestep time="16.00">
        <vehicle id="0" x="396.36" y="179.41" angle="0.00" type="DEFAULT_VEHTYPE" speed="13.99" pos="169.34" lane="-8.0.00_0" slope="0.00"/>
        <vehicle id="1" x="225.89" y="2.01" angle="270.00" type="DEFAULT_VEHTYPE" speed="12.73" pos="99.89" lane="6.0.00_0" slope="0.00"/>
        <vehicle id="10" x="384.60" y="326.59" angle="90.03" type="DEFAULT_VEHTYPE" speed="4.65" pos="36.31" lane="0.0.00_0" slope="0.00"/>
        <vehicle id="11" x="369.19" y="2.00" angle="270.00" type="DEFAULT_VEHTYPE" speed="8.48" pos="14.79" lane="7.0.00_0" slope="0.00"/>
        <vehicle id="12" x="119.88" y="330.66" angle="270.00" type="DEFAULT_VEHTYPE" speed="7.81" pos="25.13" lane="-2.0.00_0" slope="0.00"/>
        <vehicle id="13" x="127.58" y="273.12" angle="269.99" type="DEFAULT_VEHTYPE" speed="5.70" pos="17.47" lane="9.0.00_0" slope="0.00"/>
        <vehicle id="14" x="392.44" y="317.65" angle="172.51" type="DEFAULT_VEHTYPE" speed="3.99" pos="1.11" lane="8.0.00_0" slope="0.00"/>
        <vehicle id="16" x="107.85" y="326.66" angle="90.00" type="DEFAULT_VEHTYPE" speed="0.00" pos="5.10" lane="2.0.00_0" slope="0.00"/>
        <vehicle id="2" x="334.92" y="268.27" angle="180.03" type="DEFAULT_VEHTYPE" speed="13.89" pos="13.93" lane=":111_1_0" slope="0.00"/>
        <vehicle id="3" x="249.07" y="129.46" angle="90.01" type="DEFAULT_VEHTYPE" speed="14.12" pos="147.59" lane="-12.0.00_0" slope="0.00"/>
        <vehicle id="4" x="334.62" y="141.32" angle="182.60" type="DEFAULT_VEHTYPE" speed="8.45" pos="1.66" lane=":94_0_0" slope="0.00"/>
        <vehicle id="5" x="-1.98" y="211.21" angle="179.89" type="DEFAULT_VEHTYPE" speed="11.14" pos="107.44" lane="-15.0.00_0" slope="0.00"/>
        <vehicle id="6" x="334.90" y="219.40" angle="180.03" type="DEFAULT_VEHTYPE" speed="14.11" pos="40.18" lane="-17.0.00_0" slope="0.00"/>
        <vehicle id="7" x="273.01" y="2.00" angle="270.00" type="DEFAULT_VEHTYPE" speed="11.34" pos="52.77" lane="6.0.00_0" slope="0.00"/>
        <vehicle id="8" x="251.88" y="199.13" angle="270.03" type="DEFAULT_VEHTYPE" speed="12.64" pos="73.82" lane="4.0.00_0" slope="0.00"/>
        <vehicle id="9" x="70.17" y="-1.96" angle="90.03" type="DEFAULT_VEHTYPE" speed="11.30" pos="59.95" lane="-5.0.00_0" slope="0.00"/>
    </timestep>
    <timestep time="17.00">
        <vehicle id="0" x="396.36" y="192.94" angle="0.00" type="DEFAULT_VEHTYPE" speed="13.53" pos="182.87" lane="-8.0.00_0" slope="0.00"/>
        <vehicle id="1" x="212.98" y="2.01" angle="270.00" type="DEFAULT_VEHTYPE" speed="12.92" pos="112.80" lane="6.0.00_0" slope="0.00"/>
        <vehicle id="10" x="389.05" y="325.61" angle="101.44" type="DEFAULT_VEHTYPE" speed="4.63" pos="2.28" lane="-11.0.00_0" slope="0.00"/>
        <vehicle id="11" x="359.38" y="2.00" angle="270.00" type="DEFAULT_VEHTYPE" speed="9.81" pos="24.60" lane="7.0.00_0" slope="0.00"/>
        <vehicle id="12" x="110.43" y="330.66" angle="270.00" type="DEFAULT_VEHTYPE" speed="9.45" pos="34.59" lane="-2.0.00_0" slope="0.00"/>
        <vehicle id="13" x="119.35" y="273.11" angle="269.99" type="DEFAULT_VEHTYPE" speed="8.23" pos="25.70" lane="9.0.00_0" slope="0.00"/>
        <vehicle id="14" x="392.43" y="311.24" angle="180.11" type="DEFAULT_VEHTYPE" speed="6.40" pos="7.52" lane="8.0.00_0" slope="0.00"/>
        <vehicle id="16" x="109.84" y="326.66" angle="90.00" type="DEFAULT_VEHTYPE" speed="1.99" pos="7.09" lane="2.0.00_0" slope="0.00"/>
        <vehicle id="17" x="172.33" y="269.12" angle="89.99" type="DEFAULT_VEHTYPE" speed="0.00" pos="5.10" lane="-10.0.00_0" slope="0.00"/>
        <vehicle id="2" x="334.92" y="254.98" angle="180.03" type="DEFAULT_VEHTYPE" speed="13.30" pos="4.60" lane="-17.0.00_0" slope="0.00"/>
        <vehicle id="3" x="263.22" y="129.46" angle="90.01" type="DEFAULT_VEHTYPE" speed="14.15" pos="161.74" lane="-12.0.00_0" slope="0.00"/>
        <vehicle id="4" x="331.49" y="135.15" angle="215.60" type="DEFAULT_VEHTYPE" speed="7.24" pos="8.89" lane=":94_0_0" slope="0.00"/>
        <vehicle id="5" x="-1.98" y="200.04" angle="180.00" type="DEFAULT_VEHTYPE" speed="11.17" pos="118.61" lane="-15.0.00_0" slope="0.00"/>
        <vehicle id="6" x="334.89" y="205.18" angle="180.04" type="DEFAULT_VEHTYPE" speed="14.22" pos="2.85" lane=":139_1_0" slope="0.00"/>
        <vehicle id="7" x="261.02" y="2.00" angle="270.00" type="DEFAULT_VEHTYPE" speed="11.99" pos="64.76" lane="6.0.00_0" slope="0.00"/>
        <vehicle id="8" x="239.97" y="199.13" angle="270.03" type="DEFAULT_VEHTYPE" speed="11.91" pos="85.73" lane="4.0.00_0" slope="0.00"/>
        <vehicle id="9" x="81.32" y="-1.97" angle="90.03" type="DEFAULT_VEHTYPE" speed="11.15" pos="1.85" lane=":195_4_0" slope="0.00"/>
    </timestep>
    <timestep time="18.00">
        <vehicle id="0" x="396.35" y="207.41" angle="359.89" type="DEFAULT_VEHTYPE" speed="14.47" pos="197.34" lane="-8.0.00_0" slope="0.00"/>
        <vehicle id="1" x="200.23" y="2.01" angle="270.00" type="DEFAULT_VEHTYPE" speed="12.75" pos="125.55" lane="6.0.00_0" slope="0.00"/>
        <vehicle id="10" x="392.41" y="320.14" angle="155.79" type="DEFAULT_VEHTYPE" speed="6.68" pos="8.96" lane="-11.0.00_0" slope="0.00"/>
        <vehicle id="11" x="347.81" y="2.00" angle="270.00" type="DEFAULT_VEHTYPE" speed="11.57" pos="36.17" lane="7.0.00_0" slope="0.00"/>
        <vehicle id="13" x="109.90" y="273.11" angle="269.99" type="DEFAULT_VEHTYPE" speed="9.44" pos="35.15" lane="9.0.00_0" slope="0.00"/>
        <vehicle id="14" x="392.42" y="303.38" angle="180.11" type="DEFAULT_VEHTYPE" speed="7.86" pos="15.38" lane="8.0.00_0" slope="0.00"/>
        <vehicle id="16" x="113.32" y="326.66" angle="90.00" type="DEFAULT_VEHTYPE" speed="3.48" pos="10.57" lane="2.0.00_0" slope="0.00"/>
        <vehicle id="17" x="174.21" y="269.12" angle="89.99" type="DEFAULT_VEHTYPE" speed="1.88" pos="6.98" lane="-10.0.00_0" slope="0.00"/>
        <vehicle id="18" x="378.88" y="2.00" angle="270.00" type="DEFAULT_VEHTYPE" speed="0.00" pos="5.10" lane="7.0.00_0" slope="0.00"/>
        <vehicle id="2" x="334.91" y="241.05" angle="180.03" type="DEFAULT_VEHTYPE" speed="13.93" pos="18.53" lane="-17.0.00_0" slope="0.00"/>
        <vehicle id="3" x="277.80" y="129.45" angle="90.01" type="DEFAULT_VEHTYPE" speed="14.58" pos="176.31" lane="-12.0.00_0" slope="0.00"/>
        <vehicle id="4" x="324.27" y="133.45" angle="264.05" type="DEFAULT_VEHTYPE" speed="7.59" pos="1.46" lane="12.0.00_0" slope="0.00"/>
        <vehicle id="5" x="-1.97" y="189.60" angle="179.89" type="DEFAULT_VEHTYPE" speed="10.44" pos="129.05" lane="-15.0.00_0" slope="0.00"/>
        <vehicle id="6" x="334.88" y="190.91" angle="180.05" type="DEFAULT_VEHTYPE" speed="14.28" pos="17.12" lane=":139_1_0" slope="0.00"/>
        <vehicle id="7" x="249.63" y="2.00" angle="270.00" type="DEFAULT_VEHTYPE" speed="11.39" pos="76.15" lane="6.0.00_0" slope="0.00"/>
        <vehicle id="8" x="227.34" y="199.14" angle="270.03" type="DEFAULT_VEHTYPE" speed="12.62" pos="98.36" lane="4.0.00_0" slope="0.00"/>
        <vehicle id="9" x="92.99" y="-1.98" angle="90.03" type="DEFAULT_VEHTYPE" speed="11.66" pos="13.52" lane=":195_4_0" slope="0.00"/>
    </timestep>
    <timestep time="19.00">
        <vehicle id="0" x="396.35" y="221.31" angle="0.00" type="DEFAULT_VEHTYPE" speed="13.90" pos="211.24" lane="-8.0.00_0" slope="0.00"/>
        <vehicle id="1" x="188.06" y="2.01" angle="270.00" type="DEFAULT_VEHTYPE" speed="12.17" pos="137.72" lane="6.0.00_0" slope="0.00"/>
        <vehicle id="10" x="392.43" y="312.28" angle="180.11" type="DEFAULT_VEHTYPE" speed="7.97" pos="6.48" lane="8.0.00_0" slope="0.00"/>
        <vehicle id="11" x="334.11" y="2.00" angle="270.00" type="DEFAULT_VEHTYPE" speed="13.70" pos="13.68" lane=":60_3_0" slope="0.00"/>
        <vehicle id="13" x="104.20" y="273.11" angle="269.99" type="DEFAULT_VEHTYPE" speed="5.71" pos="40.85" lane="9.0.00_0" slope="0.00"/>
        <vehicle id="14" x="392.41" y="293.09" angle="180.06" type="DEFAULT_VEHTYPE" speed="10.29" pos="25.67" lane="8.0.00_0" slope="0.00"/>
        <vehicle id="15" x="391.10" y="323.72" angle="123.67" type="DEFAULT_VEHTYPE" speed="0.00" pos="5.10" lane="-11.0.00_0" slope="0.00"/>
        <vehicle id="16" x="118.81" y="326.66" angle="90.00" type="DEFAULT_VEHTYPE" speed="5.49" pos="16.06" lane="2.0.00_0" slope="0.00"/>
        <vehicle id="17" x="178.03" y="269.12" angle="89.99" type="DEFAULT_VEHTYPE" speed="3.82" pos="10.80" lane="-10.0.00_0" slope="0.00"/>
        <vehicle id="18" x="377.56" y="2.00" angle="270.00" type="DEFAULT_VEHTYPE" speed="1.32" pos="6.42" lane="7.0.00_0" slope="0.00"/>
        <vehicle id="19" x="338.93" y="287.29" angle="0.03" type="DEFAULT_VEHTYPE" speed="0.00" pos="5.10" lane="16.0.00_0" slope="0.00"/>
        <vehicle id="2" x="334.90" y="227.04" angle="180.03" type="DEFAULT_VEHTYPE" speed="14.01" pos="32.54" lane="-17.0.00_0" slope="0.00"/>
        <vehicle id="3" x="291.63" y="129.45" angle="90.01" type="DEFAULT_VEHTYPE" speed="13.83" pos="190.14" lane="-12.0.00_0" slope="0.00"/>
        <vehicle id="4" x="314.77" y="133.45" angle="270.01" type="DEFAULT_VEHTYPE" speed="9.49" pos="10.96" lane="12.0.00_0" slope="0.00"/>
        <vehicle id="5" x="-1.97" y="178.53" angle="180.00" type="DEFAULT_VEHTYPE" speed="11.07" pos="140.12" lane="-15.0.00_0" slope="0.00"/>
        <vehicle id="6" x="334.87" y="176.77" angle="180.03" type="DEFAULT_VEHTYPE" speed="14.14" pos="8.17" lane="-18.0.00_0" slope="0.00"/>
        <vehicle id="7" x="237.51" y="2.01" angle="270.00" type="DEFAULT_VEHTYPE" speed="12.12" pos="88.27" lane="6.0.00_0" slope="0.00"/>
        <vehicle id="8" x="214.41" y="199.14" angle="270.03" type="DEFAULT_VEHTYPE" speed="12.94" pos="111.29" lane="4.0.00_0" slope="0.00"/>
        <vehicle id="9" x="103.65" y="-1.98" angle="90.02" type="DEFAULT_VEHTYPE" speed="10.67" pos="1.97" lane="-6.0.00_0" slope="0.00"/>
    </timestep>
    <timestep time="20.00">
        <vehicle id="0" x="396.35" y="235.73" angle="0.00" type="DEFAULT_VEHTYPE" speed="14.41" pos="225.66" lane="-8.0.00_0" slope="0.00"/>