<?xml version="1.0" encoding="UTF-8"?>

<!-- generated on Wed Aug 14 12:26:00 2019 by Eclipse SUMO Version 1.2.0
<configuration xmlns:xsi="http://www.w3.org/2001/XMLSchema-instance" xsi:noNamespaceSchemaLocation="http://sumo.dlr.de/xsd/sumoConfiguration.xsd">

    <input>
        <net-file value="Town01.net.xml"/>
        <route-files value="trips.trips.xml"/>
    </input>

    <output>
        <netstate-dump value="test.log"/>
        <fcd-output value="Town02_Cartest.log"/>
    </output>

    <time>
        <begin value="0"/>
        <end value="10000"/>
    </time>

</configuration>
-->

<fcd-export xmlns:xsi="http://www.w3.org/2001/XMLSchema-instance" xsi:noNamespaceSchemaLocation="http://sumo.dlr.de/xsd/fcd_file.xsd">
    <timestep time="0.00">
        <vehicle id="0" x="139.92" y="330.66" angle="270.00" type="DEFAULT_VEHTYPE" speed="0.00" pos="5.10" lane="-2.0.00_0" slope="0.00"/>
    </timestep>
    <timestep time="1.00">
        <vehicle id="0" x="137.93" y="330.66" angle="270.00" type="DEFAULT_VEHTYPE" speed="1.99" pos="7.09" lane="-2.0.00_0" slope="0.00"/>
        <vehicle id="1" x="106.58" y="195.20" angle="90.03" type="DEFAULT_VEHTYPE" speed="0.00" pos="5.10" lane="-4.0.00_0" slope="0.00"/>
    </timestep>
    <timestep time="2.00">
        <vehicle id="0" x="134.08" y="330.66" angle="270.00" type="DEFAULT_VEHTYPE" speed="3.84" pos="10.93" lane="-2.0.00_0" slope="0.00"/>
        <vehicle id="1" x="108.71" y="195.20" angle="90.03" type="DEFAULT_VEHTYPE" speed="2.13" pos="7.23" lane="-4.0.00_0" slope="0.00"/>
        <vehicle id="2" x="106.55" y="269.11" angle="89.99" type="DEFAULT_VEHTYPE" speed="0.00" pos="5.10" lane="-9.0.00_0" slope="0.00"/>
    </timestep>
    <timestep time="3.00">
        <vehicle id="0" x="127.69" y="330.66" angle="270.00" type="DEFAULT_VEHTYPE" speed="6.39" pos="17.33" lane="-2.0.00_0" slope="0.00"/>
        <vehicle id="1" x="112.60" y="195.19" angle="90.03" type="DEFAULT_VEHTYPE" speed="3.89" pos="11.12" lane="-4.0.00_0" slope="0.00"/>
        <vehicle id="2" x="108.10" y="269.11" angle="89.99" type="DEFAULT_VEHTYPE" speed="1.55" pos="6.65" lane="-9.0.00_0" slope="0.00"/>
        <vehicle id="3" x="2.07" y="16.26" angle="0.00" type="DEFAULT_VEHTYPE" speed="0.00" pos="5.10" lane="15.0.00_0" slope="0.00"/>
    </timestep>
    <timestep time="4.00">
        <vehicle id="0" x="119.88" y="330.66" angle="270.00" type="DEFAULT_VEHTYPE" speed="7.81" pos="25.13" lane="-2.0.00_0" slope="0.00"/>
        <vehicle id="1" x="118.82" y="195.19" angle="90.03" type="DEFAULT_VEHTYPE" speed="6.22" pos="17.34" lane="-4.0.00_0" slope="0.00"/>
        <vehicle id="2" x="111.29" y="269.11" angle="89.99" type="DEFAULT_VEHTYPE" speed="3.19" pos="9.84" lane="-9.0.00_0" slope="0.00"/>
        <vehicle id="3" x="2.07" y="17.69" angle="0.00" type="DEFAULT_VEHTYPE" speed="1.43" pos="6.53" lane="15.0.00_0" slope="0.00"/>
        <vehicle id="4" x="334.92" y="254.48" angle="180.03" type="DEFAULT_VEHTYPE" speed="0.00" pos="5.10" lane="-17.0.00_0" slope="0.00"/>
    </timestep>
    <timestep time="5.00">
        <vehicle id="0" x="110.43" y="330.66" angle="270.00" type="DEFAULT_VEHTYPE" speed="9.45" pos="34.59" lane="-2.0.00_0" slope="0.00"/>
        <vehicle id="1" x="127.62" y="195.19" angle="90.03" type="DEFAULT_VEHTYPE" speed="8.80" pos="26.14" lane="-4.0.00_0" slope="0.00"/>
        <vehicle id="2" x="116.36" y="269.11" angle="89.99" type="DEFAULT_VEHTYPE" speed="5.06" pos="14.91" lane="-9.0.00_0" slope="0.00"/>
        <vehicle id="3" x="2.07" y="21.73" angle="0.00" type="DEFAULT_VEHTYPE" speed="4.03" pos="10.57" lane="15.0.00_0" slope="0.00"/>
        <vehicle id="4" x="334.92" y="253.16" angle="180.03" type="DEFAULT_VEHTYPE" speed="1.32" pos="6.42" lane="-17.0.00_0" slope="0.00"/>
        <vehicle id="5" x="320.60" y="199.09" angle="270.03" type="DEFAULT_VEHTYPE" speed="0.00" pos="5.10" lane="4.0.00_0" slope="0.00"/>
    </timestep>
    <timestep time="6.00">
        <vehicle id="0" x="100.88" y="330.42" angle="267.26" type="DEFAULT_VEHTYPE" speed="9.56" pos="1.89" lane=":77_1_0" slope="0.00"/>
        <vehicle id="1" x="138.24" y="195.18" angle="90.03" type="DEFAULT_VEHTYPE" speed="10.62" pos="36.76" lane="-4.0.00_0" slope="0.00"/>
        <vehicle id="2" x="122.93" y="269.11" angle="89.99" type="DEFAULT_VEHTYPE" speed="6.58" pos="21.48" lane="-9.0.00_0" slope="0.00"/>
        <vehicle id="3" x="2.07" y="27.93" angle="0.00" type="DEFAULT_VEHTYPE" speed="6.21" pos="16.77" lane="15.0.00_0" slope="0.00"/>
        <vehicle id="4" x="334.91" y="249.96" angle="180.03" type="DEFAULT_VEHTYPE" speed="3.20" pos="9.62" lane="-17.0.00_0" slope="0.00"/>
        <vehicle id="5" x="318.28" y="199.09" angle="270.03" type="DEFAULT_VEHTYPE" speed="2.32" pos="7.42" lane="4.0.00_0" slope="0.00"/>
        <vehicle id="6" x="106.58" y="195.20" angle="90.03" type="DEFAULT_VEHTYPE" speed="0.00" pos="5.10" lane="-4.0.00_0" slope="0.00"/>
    </timestep>
    <timestep time="7.00">
        <vehicle id="0" x="95.93" y="329.56" angle="260.15" type="DEFAULT_VEHTYPE" speed="5.06" pos="6.94" lane=":77_1_0" slope="0.00"/>
        <vehicle id="1" x="150.87" y="195.18" angle="90.03" type="DEFAULT_VEHTYPE" speed="12.63" pos="49.39" lane="-4.0.00_0" slope="0.00"/>
        <vehicle id="2" x="131.56" y="269.12" angle="89.99" type="DEFAULT_VEHTYPE" speed="8.62" pos="30.11" lane="-9.0.00_0" slope="0.00"/>
        <vehicle id="3" x="2.07" y="36.57" angle="0.00" type="DEFAULT_VEHTYPE" speed="8.63" pos="25.41" lane="15.0.00_0" slope="0.00"/>
        <vehicle id="4" x="334.91" y="244.74" angle="180.03" type="DEFAULT_VEHTYPE" speed="5.22" pos="14.84" lane="-17.0.00_0" slope="0.00"/>
        <vehicle id="5" x="313.49" y="199.10" angle="270.03" type="DEFAULT_VEHTYPE" speed="4.78" pos="12.21" lane="4.0.00_0" slope="0.00"/>
        <vehicle id="6" x="108.25" y="195.20" angle="90.03" type="DEFAULT_VEHTYPE" speed="1.67" pos="6.77" lane="-4.0.00_0" slope="0.00"/>
        <vehicle id="7" x="320.59" y="330.62" angle="270.00" type="DEFAULT_VEHTYPE" speed="0.00" pos="5.10" lane="-1.0.00_0" slope="0.00"/>
    </timestep>
    <timestep time="8.00">
        <vehicle id="0" x="90.82" y="325.72" angle="230.08" type="DEFAULT_VEHTYPE" speed="6.57" pos="4.63" lane=":77_6_0" slope="0.00"/>
        <vehicle id="1" x="162.68" y="195.17" angle="90.03" type="DEFAULT_VEHTYPE" speed="11.81" pos="61.20" lane="-4.0.00_0" slope="0.00"/>
        <vehicle id="2" x="142.30" y="269.12" angle="89.99" type="DEFAULT_VEHTYPE" speed="10.74" pos="40.85" lane="-9.0.00_0" slope="0.00"/>
        <vehicle id="3" x="2.07" y="47.23" angle="0.00" type="DEFAULT_VEHTYPE" speed="10.67" pos="36.07" lane="15.0.00_0" slope="0.00"/>
        <vehicle id="4" x="334.91" y="237.84" angle="180.03" type="DEFAULT_VEHTYPE" speed="6.90" pos="21.74" lane="-17.0.00_0" slope="0.00"/>
        <vehicle id="5" x="306.98" y="199.10" angle="270.03" type="DEFAULT_VEHTYPE" speed="6.51" pos="18.72" lane="4.0.00_0" slope="0.00"/>
        <vehicle id="6" x="112.52" y="195.19" angle="90.03" type="DEFAULT_VEHTYPE" speed="4.27" pos="11.04" lane="-4.0.00_0" slope="0.00"/>
        <vehicle id="7" x="318.86" y="330.63" angle="270.06" type="DEFAULT_VEHTYPE" speed="1.73" pos="6.83" lane="-1.0.00_0" slope="0.00"/>
        <vehicle id="8" x="338.89" y="213.13" angle="0.03" type="DEFAULT_VEHTYPE" speed="0.00" pos="5.10" lane="17.0.00_0" slope="0.00"/>
    </timestep>
    <timestep time="9.00">
        <vehicle id="0" x="88.44" y="318.02" angle="189.19" type="DEFAULT_VEHTYPE" speed="8.23" pos="12.86" lane=":77_6_0" slope="0.00"/>
        <vehicle id="1" x="174.78" y="195.16" angle="90.03" type="DEFAULT_VEHTYPE" speed="12.10" pos="73.30" lane="-4.0.00_0" slope="0.00"/>
        <vehicle id="2" x="148.63" y="269.64" angle="84.00" type="DEFAULT_VEHTYPE" speed="6.37" pos="3.62" lane=":167_5_0" slope="0.00"/>
        <vehicle id="3" x="2.08" y="60.32" angle="0.00" type="DEFAULT_VEHTYPE" speed="13.09" pos="49.16" lane="15.0.00_0" slope="0.00"/>
        <vehicle id="4" x="334.90" y="228.65" angle="180.03" type="DEFAULT_VEHTYPE" speed="9.19" pos="30.93" lane="-17.0.00_0" slope="0.00"/>
        <vehicle id="5" x="298.68" y="199.10" angle="270.03" type="DEFAULT_VEHTYPE" speed="8.30" pos="27.02" lane="4.0.00_0" slope="0.00"/>
        <vehicle id="6" x="118.77" y="195.19" angle="90.03" type="DEFAULT_VEHTYPE" speed="6.25" pos="17.29" lane="-4.0.00_0" slope="0.00"/>
        <vehicle id="7" x="315.63" y="330.63" angle="270.11" type="DEFAULT_VEHTYPE" speed="3.23" pos="10.06" lane="-1.0.00_0" slope="0.00"/>
        <vehicle id="8" x="338.89" y="215.62" angle="0.03" type="DEFAULT_VEHTYPE" speed="2.49" pos="7.59" lane="17.0.00_0" slope="0.00"/>
        <vehicle id="9" x="334.92" y="254.48" angle="180.03" type="DEFAULT_VEHTYPE" speed="0.00" pos="5.10" lane="-17.0.00_0" slope="0.00"/>
    </timestep>
    <timestep time="10.00">
        <vehicle id="0" x="88.43" y="307.80" angle="179.98" type="DEFAULT_VEHTYPE" speed="10.22" pos="10.14" lane="-21.0.00_0" slope="0.00"/>
        <vehicle id="1" x="187.40" y="195.16" angle="90.03" type="DEFAULT_VEHTYPE" speed="12.63" pos="85.93" lane="-4.0.00_0" slope="0.00"/>
        <vehicle id="10" x="338.93" y="287.29" angle="0.03" type="DEFAULT_VEHTYPE" speed="0.00" pos="5.10" lane="16.0.00_0" slope="0.00"/>
        <vehicle id="2" x="155.76" y="274.03" angle="48.24" type="DEFAULT_VEHTYPE" speed="8.76" pos="4.38" lane=":167_6_0" slope="0.00"/>
        <vehicle id="3" x="2.08" y="74.24" angle="0.00" type="DEFAULT_VEHTYPE" speed="13.91" pos="63.08" lane="15.0.00_0" slope="0.00"/>
        <vehicle id="4" x="334.90" y="217.29" angle="180.03" type="DEFAULT_VEHTYPE" speed="11.36" pos="42.29" lane="-17.0.00_0" slope="0.00"/>
        <vehicle id="5" x="288.69" y="199.11" angle="270.03" type="DEFAULT_VEHTYPE" speed="9.99" pos="37.01" lane="4.0.00_0" slope="0.00"/>
        <vehicle id="6" x="127.30" y="195.19" angle="90.03" type="DEFAULT_VEHTYPE" speed="8.53" pos="25.82" lane="-4.0.00_0" slope="0.00"/>
        <vehicle id="7" x="309.81" y="330.63" angle="270.00" type="DEFAULT_VEHTYPE" speed="5.82" pos="15.88" lane="-1.0.00_0" slope="0.00"/>
        <vehicle id="8" x="338.90" y="219.98" angle="0.03" type="DEFAULT_VEHTYPE" speed="4.36" pos="11.95" lane="17.0.00_0" slope="0.00"/>
        <vehicle id="9" x="334.92" y="252.00" angle="180.03" type="DEFAULT_VEHTYPE" speed="2.48" pos="7.58" lane="-17.0.00_0" slope="0.00"/>
    </timestep>
    <timestep time="11.00">
        <vehicle id="0" x="88.44" y="295.23" angle="179.98" type="DEFAULT_VEHTYPE" speed="12.58" pos="22.72" lane="-21.0.00_0" slope="0.00"/>
        <vehicle id="1" x="199.76" y="195.15" angle="90.03" type="DEFAULT_VEHTYPE" speed="12.36" pos="98.28" lane="-4.0.00_0" slope="0.00"/>
        <vehicle id="10" x="338.93" y="289.31" angle="0.03" type="DEFAULT_VEHTYPE" speed="2.02" pos="7.12" lane="16.0.00_0" slope="0.00"/>
        <vehicle id="11" x="106.58" y="195.20" angle="90.03" type="DEFAULT_VEHTYPE" speed="0.00" pos="5.10" lane="-4.0.00_0" slope="0.00"/>
        <vehicle id="2" x="158.08" y="282.68" angle="7.59" type="DEFAULT_VEHTYPE" speed="9.12" pos="0.27" lane="25.0.00_0" slope="0.00"/>
        <vehicle id="3" x="2.08" y="88.03" angle="0.00" type="DEFAULT_VEHTYPE" speed="13.79" pos="76.87" lane="15.0.00_0" slope="0.00"/>
        <vehicle id="4" x="334.89" y="204.20" angle="180.05" type="DEFAULT_VEHTYPE" speed="13.09" pos="3.83" lane=":139_1_0" slope="0.00"/>
        <vehicle id="5" x="277.48" y="199.11" angle="270.03" type="DEFAULT_VEHTYPE" speed="11.21" pos="48.22" lane="4.0.00_0" slope="0.00"/>
        <vehicle id="6" x="137.66" y="195.18" angle="90.03" type="DEFAULT_VEHTYPE" speed="10.36" pos="36.18" lane="-4.0.00_0" slope="0.00"/>
        <vehicle id="7" x="301.70" y="330.63" angle="270.00" type="DEFAULT_VEHTYPE" speed="8.11" pos="23.99" lane="-1.0.00_0" slope="0.00"/>
        <vehicle id="8" x="338.90" y="226.88" angle="0.03" type="DEFAULT_VEHTYPE" speed="6.90" pos="18.85" lane="17.0.00_0" slope="0.00"/>
        <vehicle id="9" x="334.91" y="247.33" angle="180.03" type="DEFAULT_VEHTYPE" speed="4.67" pos="12.25" lane="-17.0.00_0" slope="0.00"/>
    </timestep>
    <timestep time="12.00">
        <vehicle id="0" x="88.44" y="285.00" angle="179.98" type="DEFAULT_VEHTYPE" speed="10.24" pos="32.95" lane="-21.0.00_0" slope="0.00"/>
        <vehicle id="1" x="212.75" y="195.15" angle="90.03" type="DEFAULT_VEHTYPE" speed="12.99" pos="111.28" lane="-4.0.00_0" slope="0.00"/>
        <vehicle id="10" x="338.94" y="293.16" angle="0.03" type="DEFAULT_VEHTYPE" speed="3.85" pos="10.97" lane="16.0.00_0" slope="0.00"/>
        <vehicle id="11" x="108.54" y="195.20" angle="90.03" type="DEFAULT_VEHTYPE" speed="1.96" pos="7.06" lane="-4.0.00_0" slope="0.00"/>
        <vehicle id="12" x="74.34" y="330.65" angle="269.98" type="DEFAULT_VEHTYPE" speed="0.00" pos="5.10" lane="-3.0.00_0" slope="0.00"/>
        <vehicle id="2" x="158.10" y="294.01" angle="0.08" type="DEFAULT_VEHTYPE" speed="11.32" pos="11.60" lane="25.0.00_0" slope="0.00"/>
        <vehicle id="3" x="2.07" y="102.45" angle="359.99" type="DEFAULT_VEHTYPE" speed="14.42" pos="91.29" lane="15.0.00_0" slope="0.00"/>
        <vehicle id="4" x="334.88" y="191.11" angle="180.05" type="DEFAULT_VEHTYPE" speed="13.09" pos="16.92" lane=":139_1_0" slope="0.00"/>
        <vehicle id="5" x="267.05" y="199.12" angle="270.03" type="DEFAULT_VEHTYPE" speed="10.43" pos="58.65" lane="4.0.00_0" slope="0.00"/>
        <vehicle id="6" x="150.50" y="195.18" angle="90.03" type="DEFAULT_VEHTYPE" speed="12.84" pos="49.02" lane="-4.0.00_0" slope="0.00"/>
        <vehicle id="7" x="291.17" y="330.64" angle="270.00" type="DEFAULT_VEHTYPE" speed="10.53" pos="34.52" lane="-1.0.00_0" slope="0.00"/>
        <vehicle id="8" x="338.91" y="236.00" angle="0.03" type="DEFAULT_VEHTYPE" speed="9.12" pos="27.97" lane="17.0.00_0" slope="0.00"/>
        <vehicle id="9" x="334.91" y="240.37" angle="180.03" type="DEFAULT_VEHTYPE" speed="6.96" pos="19.21" lane="-17.0.00_0" slope="0.00"/>
    </timestep>
    <timestep time="13.00">
        <vehicle id="0" x="89.00" y="278.42" angle="173.56" type="DEFAULT_VEHTYPE" speed="6.61" pos="4.08" lane=":184_1_0" slope="0.00"/>
        <vehicle id="1" x="224.95" y="195.14" angle="90.03" type="DEFAULT_VEHTYPE" speed="12.20" pos="123.48" lane="-4.0.00_0" slope="0.00"/>
        <vehicle id="10" x="338.94" y="299.36" angle="0.03" type="DEFAULT_VEHTYPE" speed="6.19" pos="17.17" lane="16.0.00_0" slope="0.00"/>
        <vehicle id="11" x="112.38" y="195.19" angle="90.03" type="DEFAULT_VEHTYPE" speed="3.83" pos="10.90" lane="-4.0.00_0" slope="0.00"/>
        <vehicle id="12" x="72.45" y="330.65" angle="269.98" type="DEFAULT_VEHTYPE" speed="1.89" pos="6.99" lane="-3.0.00_0" slope="0.00"/>
        <vehicle id="13" x="352.89" y="-2.00" angle="90.00" type="DEFAULT_VEHTYPE" speed="0.00" pos="5.10" lane="-7.0.00_0" slope="0.00"/>
        <vehicle id="2" x="158.11" y="305.85" angle="0.08" type="DEFAULT_VEHTYPE" speed="11.84" pos="23.44" lane="25.0.00_0" slope="0.00"/>
        <vehicle id="3" x="2.06" y="116.24" angle="359.94" type="DEFAULT_VEHTYPE" speed="13.79" pos="105.08" lane="15.0.00_0" slope="0.00"/>
        <vehicle id="4" x="334.87" y="176.88" angle="180.03" type="DEFAULT_VEHTYPE" speed="14.23" pos="8.06" lane="-18.0.00_0" slope="0.00"/>
        <vehicle id="5" x="255.89" y="199.12" angle="270.03" type="DEFAULT_VEHTYPE" speed="11.16" pos="69.81" lane="4.0.00_0" slope="0.00"/>
        <vehicle id="6" x="164.33" y="195.17" angle="90.03" type="DEFAULT_VEHTYPE" speed="13.84" pos="62.85" lane="-4.0.00_0" slope="0.00"/>
        <vehicle id="7" x="279.42" y="330.64" angle="270.00" type="DEFAULT_VEHTYPE" speed="11.75" pos="46.27" lane="-1.0.00_0" slope="0.00"/>
        <vehicle id="8" x="338.91" y="247.56" angle="0.03" type="DEFAULT_VEHTYPE" speed="11.55" pos="39.53" lane="17.0.00_0" slope="0.00"/>
        <vehicle id="9" x="334.90" y="230.92" angle="180.03" type="DEFAULT_VEHTYPE" speed="9.45" pos="28.66" lane="-17.0.00_0" slope="0.00"/>
    </timestep>
    <timestep time="14.00">
        <vehicle id="0" x="93.29" y="271.46" angle="139.23" type="DEFAULT_VEHTYPE" speed="8.53" pos="4.36" lane=":184_6_0" slope="0.00"/>
        <vehicle id="1" x="237.04" y="195.13" angle="90.03" type="DEFAULT_VEHTYPE" speed="12.09" pos="135.57" lane="-4.0.00_0" slope="0.00"/>
        <vehicle id="10" x="338.94" y="308.07" angle="0.03" type="DEFAULT_VEHTYPE" speed="8.71" pos="25.88" lane="16.0.00_0" slope="0.00"/>
        <vehicle id="11" x="118.80" y="195.19" angle="90.03" type="DEFAULT_VEHTYPE" speed="6.42" pos="17.32" lane="-4.0.00_0" slope="0.00"/>
        <vehicle id="12" x="68.22" y="330.65" angle="269.98" type="DEFAULT_VEHTYPE" speed="4.23" pos="11.22" lane="-3.0.00_0" slope="0.00"/>
        <vehicle id="13" x="354.87" y="-2.00" angle="90.00" type="DEFAULT_VEHTYPE" speed="1.98" pos="7.08" lane="-7.0.00_0" slope="0.00"/>
        <vehicle id="14" x="74.37" y="2.03" angle="270.03" type="DEFAULT_VEHTYPE" speed="0.00" pos="5.10" lane="5.0.00_0" slope="0.00"/>
        <vehicle id="2" x="158.12" y="314.06" angle="0.08" type="DEFAULT_VEHTYPE" speed="8.21" pos="31.65" lane="25.0.00_0" slope="0.00"/>
        <vehicle id="3" x="2.06" y="131.10" angle="0.00" type="DEFAULT_VEHTYPE" speed="14.87" pos="119.94" lane="15.0.00_0" slope="0.00"/>
        <vehicle id="4" x="334.86" y="163.46" angle="180.03" type="DEFAULT_VEHTYPE" speed="13.43" pos="21.48" lane="-18.0.00_0" slope="0.00"/>
        <vehicle id="5" x="245.46" y="199.13" angle="270.03" type="DEFAULT_VEHTYPE" speed="10.43" pos="80.24" lane="4.0.00_0" slope="0.00"/>
        <vehicle id="6" x="178.62" y="195.16" angle="90.03" type="DEFAULT_VEHTYPE" speed="14.29" pos="77.14" lane="-4.0.00_0" slope="0.00"/>
        <vehicle id="7" x="267.75" y="330.64" angle="270.00" type="DEFAULT_VEHTYPE" speed="11.67" pos="57.94" lane="-1.0.00_0" slope="0.00"/>
        <vehicle id="8" x="338.92" y="258.44" angle="0.03" type="DEFAULT_VEHTYPE" speed="10.89" pos="50.41" lane="17.0.00_0" slope="0.00"/>
        <vehicle id="9" x="334.90" y="219.04" angle="180.03" type="DEFAULT_VEHTYPE" speed="11.88" pos="40.54" lane="-17.0.00_0" slope="0.00"/>
    </timestep>
    <timestep time="15.00">
        <vehicle id="0" x="102.50" y="269.11" angle="96.55" type="DEFAULT_VEHTYPE" speed="9.71" pos="1.05" lane="-9.0.00_0" slope="0.00"/>
        <vehicle id="1" x="249.48" y="195.13" angle="90.03" type="DEFAULT_VEHTYPE" speed="12.44" pos="148.01" lane="-4.0.00_0" slope="0.00"/>
        <vehicle id="10" x="338.95" y="314.22" angle="0.03" type="DEFAULT_VEHTYPE" speed="6.16" pos="32.03" lane="16.0.00_0" slope="0.00"/>
        <vehicle id="11" x="127.04" y="195.19" angle="90.03" type="DEFAULT_VEHTYPE" speed="8.24" pos="25.56" lane="-4.0.00_0" slope="0.00"/>
        <vehicle id="12" x="62.66" y="330.65" angle="269.98" type="DEFAULT_VEHTYPE" speed="5.56" pos="16.78" lane="-3.0.00_0" slope="0.00"/>
        <vehicle id="13" x="358.54" y="-2.00" angle="90.00" type="DEFAULT_VEHTYPE" speed="3.67" pos="10.75" lane="-7.0.00_0" slope="0.00"/>
        <vehicle id="14" x="72.91" y="2.03" angle="270.03" type="DEFAULT_VEHTYPE" speed="1.46" pos="6.56" lane="5.0.00_0" slope="0.00"/>
        <vehicle id="15" x="378.88" y="2.00" angle="270.00" type="DEFAULT_VEHTYPE" speed="0.00" pos="5.10" lane="7.0.00_0" slope="0.00"/>
        <vehicle id="2" x="157.33" y="323.33" angle="351.64" type="DEFAULT_VEHTYPE" speed="9.33" pos="5.49" lane=":26_3_0" slope="0.00"/>
        <vehicle id="3" x="2.05" y="145.50" angle="0.00" type="DEFAULT_VEHTYPE" speed="14.40" pos="134.34" lane="15.0.00_0" slope="0.00"/>
        <vehicle id="4" x="334.85" y="149.23" angle="180.03" type="DEFAULT_VEHTYPE" speed="14.23" pos="35.72" lane="-18.0.00_0" slope="0.00"/>
        <vehicle id="5" x="234.33" y="199.13" angle="270.03" type="DEFAULT_VEHTYPE" speed="11.14" pos="91.37" lane="4.0.00_0" slope="0.00"/>
        <vehicle id="6" x="192.59" y="195.16" angle="90.03" type="DEFAULT_VEHTYPE" speed="13.97" pos="91.11" lane="-4.0.00_0" slope="0.00"/>
        <vehicle id="7" x="256.01" y="330.64" angle="270.00" type="DEFAULT_VEHTYPE" speed="11.74" pos="69.68" lane="-1.0.00_0" slope="0.00"/>
        <vehicle id="8" x="338.19" y="264.78" angle="352.03" type="DEFAULT_VEHTYPE" speed="6.39" pos="5.25" lane=":111_3_0" slope="0.00"/>
        <vehicle id="9" x="334.89" y="208.01" angle="180.03" type="DEFAULT_VEHTYPE" speed="11.03" pos="0.02" lane=":139_1_0" slope="0.00"/>
    </timestep>
    <timestep time="16.00">
        <vehicle id="0" x="114.25" y="269.11" angle="89.99" type="DEFAULT_VEHTYPE" speed="11.75" pos="12.80" lane="-9.0.00_0" slope="0.00"/>
        <vehicle id="1" x="261.46" y="195.12" angle="90.03" type="DEFAULT_VEHTYPE" speed="11.98" pos="159.98" lane="-4.0.00_0" slope="0.00"/>
        <vehicle id="10" x="338.24" y="322.68" angle="351.82" type="DEFAULT_VEHTYPE" speed="8.50" pos="4.92" lane=":43_3_0" slope="0.00"/>
        <vehicle id="11" x="136.67" y="195.18" angle="90.03" type="DEFAULT_VEHTYPE" speed="9.63" pos="35.19" lane="-4.0.00_0" slope="0.00"/>
        <vehicle id="12" x="55.71" y="330.64" angle="269.98" type="DEFAULT_VEHTYPE" speed="6.95" pos="23.73" lane="-3.0.00_0" slope="0.00"/>
        <vehicle id="13" x="363.53" y="-2.00" angle="90.00" type="DEFAULT_VEHTYPE" speed="5.00" pos="15.74" lane="-7.0.00_0" slope="0.00"/>
        <vehicle id="14" x="68.90" y="2.04" angle="270.03" type="DEFAULT_VEHTYPE" speed="4.01" pos="10.57" lane="5.0.00_0" slope="0.00"/>
        <vehicle id="15" x="376.37" y="2.00" angle="270.00" type="DEFAULT_VEHTYPE" speed="2.51" pos="7.61" lane="7.0.00_0" slope="0.00"/>
        <vehicle id="16" x="352.89" y="-2.00" angle="90.00" type="DEFAULT_VEHTYPE" speed="0.00" pos="5.10" lane="-7.0.00_0" slope="0.00"/>
        <vehicle id="2" x="150.68" y="329.87" angle="300.83" type="DEFAULT_VEHTYPE" speed="9.66" pos="15.15" lane=":26_3_0" slope="0.00"/>
        <vehicle id="3" x="2.04" y="159.89" angle="359.91" type="DEFAULT_VEHTYPE" speed="14.39" pos="148.73" lane="15.0.00_0" slope="0.00"/>
        <vehicle id="4" x="334.84" y="135.50" angle="180.05" type="DEFAULT_VEHTYPE" speed="13.74" pos="7.46" lane=":94_1_0" slope="0.00"/>
        <vehicle id="5" x="222.87" y="199.14" angle="270.03" type="DEFAULT_VEHTYPE" speed="11.45" pos="102.83" lane="4.0.00_0" slope="0.00"/>
        <vehicle id="6" x="205.96" y="195.15" angle="90.03" type="DEFAULT_VEHTYPE" speed="13.37" pos="104.48" lane="-4.0.00_0" slope="0.00"/>
        <vehicle id="7" x="244.45" y="330.64" angle="270.01" type="DEFAULT_VEHTYPE" speed="11.56" pos="81.24" lane="-1.0.00_0" slope="0.00"/>
        <vehicle id="8" x="333.48" y="271.06" angle="315.63" type="DEFAULT_VEHTYPE" speed="8.15" pos="5.10" lane=":111_6_0" slope="0.00"/>
        <vehicle id="9" x="334.88" y="196.36" angle="180.05" type="DEFAULT_VEHTYPE" speed="11.65" pos="11.67" lane=":139_1_0" slope="0.00"/>
    </timestep>
    <timestep time="17.00">
        <vehicle id="0" x="128.23" y="269.12" angle="89.99" type="DEFAULT_VEHTYPE" speed="13.98" pos="26.78" lane="-9.0.00_0" slope="0.00"/>
        <vehicle id="1" x="274.16" y="195.12" angle="90.03" type="DEFAULT_VEHTYPE" speed="12.70" pos="172.68" lane="-4.0.00_0" slope="0.00"/>
        <vehicle id="10" x="331.71" y="329.69" angle="302.55" type="DEFAULT_VEHTYPE" speed="10.00" pos="14.92" lane=":43_3_0" slope="0.00"/>
        <vehicle id="11" x="148.15" y="195.18" angle="90.03" type="DEFAULT_VEHTYPE" speed="11.48" pos="46.67" lane="-4.0.00_0" slope="0.00"/>
        <vehicle id="12" x="46.27" y="330.64" angle="269.98" type="DEFAULT_VEHTYPE" speed="9.44" pos="33.17" lane="-3.0.00_0" slope="0.00"/>
        <vehicle id="13" x="370.60" y="-2.00" angle="90.00" type="DEFAULT_VEHTYPE" speed="7.07" pos="22.81" lane="-7.0.00_0" slope="0.00"/>
        <vehicle id="14" x="62.84" y="2.04" angle="270.03" type="DEFAULT_VEHTYPE" speed="6.07" pos="16.63" lane="5.0.00_0" slope="0.00"/>
        <vehicle id="15" x="371.75" y="2.00" angle="270.00" type="DEFAULT_VEHTYPE" speed="4.62" pos="12.23" lane="7.0.00_0" slope="0.00"/>
        <vehicle id="16" x="354.40" y="-2.00" angle="90.00" type="DEFAULT_VEHTYPE" speed="1.51" pos="6.61" lane="-7.0.00_0" slope="0.00"/>
        <vehicle id="17" x="334.95" y="312.72" angle="180.03" type="DEFAULT_VEHTYPE" speed="0.00" pos="5.10" lane="-16.0.00_0" slope="0.00"/>
        <vehicle id="2" x="141.73" y="330.66" angle="272.71" type="DEFAULT_VEHTYPE" speed="9.01" pos="3.29" lane="-2.0.00_0" slope="0.00"/>
        <vehicle id="3" x="2.03" y="174.01" angle="359.89" type="DEFAULT_VEHTYPE" speed="14.12" pos="162.85" lane="15.0.00_0" slope="0.00"/>
        <vehicle id="4" x="334.83" y="122.15" angle="180.05" type="DEFAULT_VEHTYPE" speed="13.34" pos="20.80" lane=":94_1_0" slope="0.00"/>
        <vehicle id="5" x="212.13" y="199.15" angle="270.03" type="DEFAULT_VEHTYPE" speed="10.74" pos="113.57" lane="4.0.00_0" slope="0.00"/>
        <vehicle id="6" x="220.43" y="195.14" angle="90.03" type="DEFAULT_VEHTYPE" speed="14.47" pos="118.95" lane="-4.0.00_0" slope="0.00"/>
        <vehicle id="7" x="232.77" y="330.65" angle="270.00" type="DEFAULT_VEHTYPE" speed="11.68" pos="92.92" lane="-1.0.00_0" slope="0.00"/>
        <vehicle id="8" x="325.57" y="273.14" angle="278.16" type="DEFAULT_VEHTYPE" speed="8.32" pos="0.12" lane="10.0.00_0" slope="0.00"/>
        <vehicle id="9" x="334.87" y="184.85" angle="180.05" type="DEFAULT_VEHTYPE" speed="11.51" pos="0.09" lane="-18.0.00_0" slope="0.00"/>
    </timestep>
    <timestep time="18.00">
        <vehicle id="0" x="141.71" y="269.12" angle="89.99" type="DEFAULT_VEHTYPE" speed="13.48" pos="40.26" lane="-9.0.00_0" slope="0.00"/>
        <vehicle id="1" x="286.10" y="195.11" angle="90.03" type="DEFAULT_VEHTYPE" speed="11.95" pos="184.63" lane="-4.0.00_0" slope="0.00"/>
        <vehicle id="10" x="321.87" y="330.62" angle="271.85" type="DEFAULT_VEHTYPE" speed="9.92" pos="3.82" lane="-1.0.00_0" slope="0.00"/>
        <vehicle id="11" x="161.31" y="195.17" angle="90.03" type="DEFAULT_VEHTYPE" speed="13.16" pos="59.84" lane="-4.0.00_0" slope="0.00"/>
        <vehicle id="12" x="34.30" y="330.64" angle="269.98" type="DEFAULT_VEHTYPE" speed="11.98" pos="45.14" lane="-3.0.00_0" slope="0.00"/>
        <vehicle id="13" x="379.41" y="-2.00" angle="90.00" type="DEFAULT_VEHTYPE" speed="8.81" pos="31.62" lane="-7.0.00_0" slope="0.00"/>
        <vehicle id="14" x="54.35" y="2.04" angle="270.03" type="DEFAULT_VEHTYPE" speed="8.48" pos="25.12" lane="5.0.00_0" slope="0.00"/>
        <vehicle id="15" x="365.79" y="2.00" angle="270.00" type="DEFAULT_VEHTYPE" speed="5.96" pos="18.19" lane="7.0.00_0" slope="0.00"/>
        <vehicle id="16" x="357.96" y="-2.00" angle="90.00" type="DEFAULT_VEHTYPE" speed="3.56" pos="10.17" lane="-7.0.00_0" slope="0.00"/>
        <vehicle id="17" x="334.95" y="310.93" angle="180.03" type="DEFAULT_VEHTYPE" speed="1.79" pos="6.89" lane="-16.0.00_0" slope="0.00"/>
        <vehicle id="18" x="3.17" y="323.51" angle="13.52" type="DEFAULT_VEHTYPE" speed="0.00" pos="5.10" lane="-13.0.00_0" slope="0.00"/>
        <vehicle id="2" x="130.54" y="330.66" angle="270.00" type="DEFAULT_VEHTYPE" speed="11.18" pos="14.48" lane="-2.0.00_0" slope="0.00"/>
        <vehicle id="3" x="2.03" y="189.01" angle="0.00" type="DEFAULT_VEHTYPE" speed="15.00" pos="177.85" lane="15.0.00_0" slope="0.00"/>
        <vehicle id="4" x="334.82" y="108.80" angle="180.03" type="DEFAULT_VEHTYPE" speed="13.35" pos="10.65" lane="-19.0.00_0" slope="0.00"/>
        <vehicle id="5" x="201.62" y="199.15" angle="270.03" type="DEFAULT_VEHTYPE" speed="10.52" pos="124.08" lane="4.0.00_0" slope="0.00"/>
        <vehicle id="6" x="234.44" y="195.13" angle="90.03" type="DEFAULT_VEHTYPE" speed="14.01" pos="132.96" lane="-4.0.00_0" slope="0.00"/>
        <vehicle id="7" x="221.28" y="330.65" angle="270.00" type="DEFAULT_VEHTYPE" speed="11.49" pos="104.41" lane="-1.0.00_0" slope="0.00"/>
        <vehicle id="8" x="315.81" y="273.14" angle="269.99" type="DEFAULT_VEHTYPE" speed="9.76" pos="9.88" lane="10.0.00_0" slope="0.00"/>
        <vehicle id="9" x="334.86" y="174.24" angle="180.03" type="DEFAULT_VEHTYPE" speed="10.61" pos="10.70" lane="-18.0.00_0" slope="0.00"/>
    </timestep>
    <timestep time="19.00">
        <vehicle id="0" x="156.31" y="269.12" angle="90.00" type="DEFAULT_VEHTYPE" speed="14.60" pos="11.26" lane=":167_4_0" slope="0.00"/>
        <vehicle id="1" x="298.78" y="195.10" angle="90.03" type="DEFAULT_VEHTYPE" speed="12.68" pos="197.31" lane="-4.0.00_0" slope="0.00"/>
        <vehicle id="10" x="309.97" y="330.63" angle="270.00" type="DEFAULT_VEHTYPE" speed="11.90" pos="15.72" lane="-1.0.00_0" slope="0.00"/>
        <vehicle id="11" x="174.33" y="195.16" angle="90.03" type="DEFAULT_VEHTYPE" speed="13.02" pos="72.85" lane="-4.0.00_0" slope="0.00"/>
        <vehicle id="12" x="20.26" y="330.63" angle="269.98" type="DEFAULT_VEHTYPE" speed="14.04" pos="59.18" lane="-3.0.00_0" slope="0.00"/>
        <vehicle id="13" x="389.93" y="-0.82" angle="76.36" type="DEFAULT_VEHTYPE" speed="10.70" pos="5.80" lane="14.0.00_0" slope="0.00"/>
        <vehicle id="14" x="43.38" y="2.05" angle="270.03" type="DEFAULT_VEHTYPE" speed="10.97" pos="36.09" lane="5.0.00_0" slope="0.00"/>
        <vehicle id="15" x="358.20" y="2.00" angle="270.00" type="DEFAULT_VEHTYPE" speed="7.59" pos="25.78" lane="7.0.00_0" slope="0.00"/>
        <vehicle id="16" x="363.39" y="-2.00" angle="90.00" type="DEFAULT_VEHTYPE" speed="5.42" pos="15.60" lane="-7.0.00_0" slope="0.00"/>
        <vehicle id="17" x="334.94" y="307.04" angle="180.03" type="DEFAULT_VEHTYPE" speed="3.90" pos="10.78" lane="-16.0.00_0" slope="0.00"/>
        <vehicle id="18" x="4.70" y="325.08" angle="31.59" type="DEFAULT_VEHTYPE" speed="2.21" pos="7.31" lane="-13.0.00_0" slope="0.00"/>
        <vehicle id="2" x="117.42" y="330.66" angle="270.00" type="DEFAULT_VEHTYPE" speed="13.12" pos="27.60" lane="-2.0.00_0" slope="0.00"/>