<?xml version="1.0" encoding="UTF-8"?>

<!-- generated on Wed Aug 14 12:01:25 2019 by Eclipse SUMO Version 1.2.0
<configuration xmlns:xsi="http://www.w3.org/2001/XMLSchema-instance" xsi:noNamespaceSchemaLocation="http://sumo.dlr.de/xsd/sumoConfiguration.xsd">

    <input>
        <net-file value="Town01.net.xml"/>
        <route-files value="trips.trips.xml"/>
    </input>

    <output>
        <netstate-dump value="test.log"/>
        <fcd-output value="Town01_Car200_3.log"/>
    </output>

    <time>
        <begin value="0"/>
        <end value="10000"/>
    </time>

</configuration>
-->

<fcd-export xmlns:xsi="http://www.w3.org/2001/XMLSchema-instance" xsi:noNamespaceSchemaLocation="http://sumo.dlr.de/xsd/fcd_file.xsd">
    <timestep time="0.00">
        <vehicle id="0" x="-1.04" y="5.80" angle="169.63" type="DEFAULT_VEHTYPE" speed="0.00" pos="5.10" lane="20.0.00_0" slope="0.00"/>
    </timestep>
    <timestep time="1.00">
        <vehicle id="0" x="-0.46" y="4.53" angle="164.02" type="DEFAULT_VEHTYPE" speed="1.40" pos="6.50" lane="20.0.00_0" slope="0.00"/>
        <vehicle id="1" x="379.55" y="330.59" angle="270.03" type="DEFAULT_VEHTYPE" speed="0.00" pos="5.10" lane="-0.0.00_0" slope="0.00"/>
    </timestep>
    <timestep time="2.00">
        <vehicle id="0" x="1.44" y="1.68" angle="149.22" type="DEFAULT_VEHTYPE" speed="3.44" pos="9.94" lane="20.0.00_0" slope="0.00"/>
        <vehicle id="1" x="377.97" y="330.59" angle="270.03" type="DEFAULT_VEHTYPE" speed="1.58" pos="6.68" lane="-0.0.00_0" slope="0.00"/>
        <vehicle id="2" x="338.93" y="287.29" angle="0.03" type="DEFAULT_VEHTYPE" speed="0.00" pos="5.10" lane="16.0.00_0" slope="0.00"/>
    </timestep>
    <timestep time="3.00">
        <vehicle id="0" x="5.58" y="-1.16" angle="124.24" type="DEFAULT_VEHTYPE" speed="5.09" pos="15.03" lane="20.0.00_0" slope="0.00"/>
        <vehicle id="1" x="374.01" y="330.60" angle="270.03" type="DEFAULT_VEHTYPE" speed="3.96" pos="10.64" lane="-0.0.00_0" slope="0.00"/>
        <vehicle id="2" x="338.93" y="289.31" angle="0.03" type="DEFAULT_VEHTYPE" speed="2.02" pos="7.12" lane="16.0.00_0" slope="0.00"/>
        <vehicle id="3" x="5.14" y="3.63" angle="288.52" type="DEFAULT_VEHTYPE" speed="0.00" pos="5.10" lane="-20.0.00_0" slope="0.00"/>
    </timestep>
    <timestep time="4.00">
        <vehicle id="0" x="12.72" y="-1.93" angle="92.13" type="DEFAULT_VEHTYPE" speed="7.23" pos="2.50" lane="-5.0.00_0" slope="0.00"/>
        <vehicle id="1" x="368.45" y="330.60" angle="270.03" type="DEFAULT_VEHTYPE" speed="5.57" pos="16.20" lane="-0.0.00_0" slope="0.00"/>
        <vehicle id="2" x="338.94" y="293.16" angle="0.03" type="DEFAULT_VEHTYPE" speed="3.85" pos="10.97" lane="16.0.00_0" slope="0.00"/>
        <vehicle id="3" x="3.76" y="5.25" angle="306.60" type="DEFAULT_VEHTYPE" speed="2.14" pos="7.24" lane="-20.0.00_0" slope="0.00"/>
    </timestep>
    <timestep time="5.00">
        <vehicle id="0" x="22.16" y="-1.94" angle="90.03" type="DEFAULT_VEHTYPE" speed="9.44" pos="11.94" lane="-5.0.00_0" slope="0.00"/>
        <vehicle id="1" x="360.63" y="330.60" angle="270.03" type="DEFAULT_VEHTYPE" speed="7.82" pos="24.02" lane="-0.0.00_0" slope="0.00"/>
        <vehicle id="2" x="338.94" y="299.36" angle="0.03" type="DEFAULT_VEHTYPE" speed="6.19" pos="17.17" lane="16.0.00_0" slope="0.00"/>
        <vehicle id="3" x="2.35" y="8.48" angle="332.08" type="DEFAULT_VEHTYPE" speed="3.55" pos="10.79" lane="-20.0.00_0" slope="0.00"/>
        <vehicle id="5" x="88.46" y="115.18" angle="179.99" type="DEFAULT_VEHTYPE" speed="0.00" pos="5.10" lane="-24.0.00_0" slope="0.00"/>
    </timestep>
    <timestep time="6.00">
        <vehicle id="0" x="33.90" y="-1.94" angle="90.03" type="DEFAULT_VEHTYPE" speed="11.74" pos="23.68" lane="-5.0.00_0" slope="0.00"/>
        <vehicle id="1" x="350.60" y="330.61" angle="270.03" type="DEFAULT_VEHTYPE" speed="10.03" pos="34.05" lane="-0.0.00_0" slope="0.00"/>
        <vehicle id="2" x="338.94" y="308.07" angle="0.03" type="DEFAULT_VEHTYPE" speed="8.71" pos="25.88" lane="16.0.00_0" slope="0.00"/>
        <vehicle id="3" x="2.07" y="13.55" angle="357.07" type="DEFAULT_VEHTYPE" speed="5.09" pos="2.39" lane="15.0.00_0" slope="0.00"/>
        <vehicle id="4" x="5.14" y="3.63" angle="288.52" type="DEFAULT_VEHTYPE" speed="0.00" pos="5.10" lane="-20.0.00_0" slope="0.00"/>
        <vehicle id="5" x="88.46" y="113.51" angle="179.99" type="DEFAULT_VEHTYPE" speed="1.67" pos="6.77" lane="-24.0.00_0" slope="0.00"/>
        <vehicle id="6" x="334.92" y="254.48" angle="180.03" type="DEFAULT_VEHTYPE" speed="0.00" pos="5.10" lane="-17.0.00_0" slope="0.00"/>
    </timestep>
    <timestep time="7.00">
        <vehicle id="0" x="48.04" y="-1.95" angle="90.03" type="DEFAULT_VEHTYPE" speed="14.14" pos="37.82" lane="-5.0.00_0" slope="0.00"/>
        <vehicle id="1" x="343.60" y="329.97" angle="262.60" type="DEFAULT_VEHTYPE" speed="7.04" pos="4.73" lane=":43_1_0" slope="0.00"/>
        <vehicle id="2" x="338.95" y="314.22" angle="0.03" type="DEFAULT_VEHTYPE" speed="6.16" pos="32.03" lane="16.0.00_0" slope="0.00"/>
        <vehicle id="3" x="2.07" y="20.07" angle="0.00" type="DEFAULT_VEHTYPE" speed="6.52" pos="8.91" lane="15.0.00_0" slope="0.00"/>
        <vehicle id="4" x="4.05" y="4.82" angle="302.14" type="DEFAULT_VEHTYPE" speed="1.63" pos="6.73" lane="-20.0.00_0" slope="0.00"/>
        <vehicle id="5" x="88.46" y="109.96" angle="179.99" type="DEFAULT_VEHTYPE" speed="3.56" pos="10.32" lane="-24.0.00_0" slope="0.00"/>
        <vehicle id="6" x="334.92" y="253.16" angle="180.03" type="DEFAULT_VEHTYPE" speed="1.32" pos="6.42" lane="-17.0.00_0" slope="0.00"/>
        <vehicle id="7" x="88.44" y="255.36" angle="179.99" type="DEFAULT_VEHTYPE" speed="0.00" pos="5.10" lane="-22.0.00_0" slope="0.00"/>
    </timestep>
    <timestep time="8.00">
        <vehicle id="0" x="61.85" y="-1.96" angle="90.03" type="DEFAULT_VEHTYPE" speed="13.81" pos="51.63" lane="-5.0.00_0" slope="0.00"/>
        <vehicle id="1" x="336.62" y="324.75" angle="222.40" type="DEFAULT_VEHTYPE" speed="9.10" pos="5.54" lane=":43_6_0" slope="0.00"/>
        <vehicle id="2" x="339.83" y="322.11" angle="10.19" type="DEFAULT_VEHTYPE" speed="8.01" pos="4.43" lane=":43_2_0" slope="0.00"/>
        <vehicle id="3" x="2.07" y="29.19" angle="0.00" type="DEFAULT_VEHTYPE" speed="9.12" pos="18.03" lane="15.0.00_0" slope="0.00"/>
        <vehicle id="4" x="2.47" y="8.00" angle="329.06" type="DEFAULT_VEHTYPE" speed="3.57" pos="10.30" lane="-20.0.00_0" slope="0.00"/>
        <vehicle id="5" x="88.46" y="104.55" angle="179.99" type="DEFAULT_VEHTYPE" speed="5.41" pos="15.73" lane="-24.0.00_0" slope="0.00"/>
        <vehicle id="6" x="334.91" y="249.96" angle="180.03" type="DEFAULT_VEHTYPE" speed="3.20" pos="9.62" lane="-17.0.00_0" slope="0.00"/>
        <vehicle id="7" x="88.44" y="252.81" angle="179.99" type="DEFAULT_VEHTYPE" speed="2.55" pos="7.65" lane="-22.0.00_0" slope="0.00"/>
    </timestep>
    <timestep time="9.00">
        <vehicle id="0" x="73.97" y="-1.97" angle="90.03" type="DEFAULT_VEHTYPE" speed="12.12" pos="63.75" lane="-5.0.00_0" slope="0.00"/>
        <vehicle id="1" x="334.95" y="316.80" angle="186.81" type="DEFAULT_VEHTYPE" speed="8.25" pos="1.02" lane="-16.0.00_0" slope="0.00"/>
        <vehicle id="2" x="346.12" y="326.32" angle="68.90" type="DEFAULT_VEHTYPE" speed="8.01" pos="12.43" lane=":43_2_0" slope="0.00"/>
        <vehicle id="3" x="2.07" y="40.48" angle="0.00" type="DEFAULT_VEHTYPE" speed="11.29" pos="29.32" lane="15.0.00_0" slope="0.00"/>
        <vehicle id="4" x="2.07" y="13.66" angle="357.38" type="DEFAULT_VEHTYPE" speed="5.69" pos="2.50" lane="15.0.00_0" slope="0.00"/>
        <vehicle id="5" x="88.46" y="97.67" angle="179.99" type="DEFAULT_VEHTYPE" speed="6.88" pos="22.61" lane="-24.0.00_0" slope="0.00"/>
        <vehicle id="6" x="334.91" y="244.74" angle="180.03" type="DEFAULT_VEHTYPE" speed="5.22" pos="14.84" lane="-17.0.00_0" slope="0.00"/>
        <vehicle id="7" x="88.44" y="248.05" angle="179.99" type="DEFAULT_VEHTYPE" speed="4.76" pos="12.41" lane="-22.0.00_0" slope="0.00"/>
        <vehicle id="8" x="5.14" y="3.63" angle="288.52" type="DEFAULT_VEHTYPE" speed="0.00" pos="5.10" lane="-20.0.00_0" slope="0.00"/>
        <vehicle id="9" x="139.95" y="273.12" angle="269.99" type="DEFAULT_VEHTYPE" speed="0.00" pos="5.10" lane="9.0.00_0" slope="0.00"/>
    </timestep>
    <timestep time="10.00">
        <vehicle id="0" x="82.03" y="-1.60" angle="85.73" type="DEFAULT_VEHTYPE" speed="8.08" pos="2.58" lane=":195_5_0" slope="0.00"/>
        <vehicle id="1" x="334.94" y="306.76" angle="180.03" type="DEFAULT_VEHTYPE" speed="10.04" pos="11.06" lane="-16.0.00_0" slope="0.00"/>
        <vehicle id="10" x="320.59" y="273.14" angle="269.99" type="DEFAULT_VEHTYPE" speed="0.00" pos="5.10" lane="10.0.00_0" slope="0.00"/>
        <vehicle id="2" x="353.21" y="326.61" angle="89.90" type="DEFAULT_VEHTYPE" speed="7.11" pos="4.92" lane="0.0.00_0" slope="0.00"/>
        <vehicle id="3" x="2.08" y="54.20" angle="0.06" type="DEFAULT_VEHTYPE" speed="13.72" pos="43.04" lane="15.0.00_0" slope="0.00"/>
        <vehicle id="4" x="2.07" y="21.38" angle="0.00" type="DEFAULT_VEHTYPE" speed="7.73" pos="10.22" lane="15.0.00_0" slope="0.00"/>
        <vehicle id="5" x="88.47" y="88.31" angle="179.99" type="DEFAULT_VEHTYPE" speed="9.36" pos="31.97" lane="-24.0.00_0" slope="0.00"/>
        <vehicle id="6" x="334.91" y="237.84" angle="180.03" type="DEFAULT_VEHTYPE" speed="6.90" pos="21.74" lane="-17.0.00_0" slope="0.00"/>
        <vehicle id="7" x="88.44" y="240.87" angle="179.99" type="DEFAULT_VEHTYPE" speed="7.17" pos="19.58" lane="-22.0.00_0" slope="0.00"/>
        <vehicle id="8" x="4.01" y="4.88" angle="302.82" type="DEFAULT_VEHTYPE" speed="1.70" pos="6.80" lane="-20.0.00_0" slope="0.00"/>
        <vehicle id="9" x="137.43" y="273.12" angle="269.99" type="DEFAULT_VEHTYPE" speed="2.52" pos="7.62" lane="9.0.00_0" slope="0.00"/>
    </timestep>
    <timestep time="11.00">
        <vehicle id="0" x="86.06" y="-0.59" angle="76.86" type="DEFAULT_VEHTYPE" speed="4.22" pos="6.81" lane=":195_5_0" slope="0.00"/>
        <vehicle id="1" x="334.94" y="294.62" angle="180.03" type="DEFAULT_VEHTYPE" speed="12.15" pos="23.20" lane="-16.0.00_0" slope="0.00"/>
        <vehicle id="10" x="319.15" y="273.14" angle="269.99" type="DEFAULT_VEHTYPE" speed="1.44" pos="6.54" lane="10.0.00_0" slope="0.00"/>
        <vehicle id="11" x="334.95" y="312.72" angle="180.03" type="DEFAULT_VEHTYPE" speed="0.00" pos="5.10" lane="-16.0.00_0" slope="0.00"/>
        <vehicle id="2" x="362.07" y="326.60" angle="90.03" type="DEFAULT_VEHTYPE" speed="8.86" pos="13.78" lane="0.0.00_0" slope="0.00"/>
        <vehicle id="3" x="2.08" y="69.06" angle="0.00" type="DEFAULT_VEHTYPE" speed="14.86" pos="57.90" lane="15.0.00_0" slope="0.00"/>
        <vehicle id="4" x="2.07" y="30.58" angle="0.00" type="DEFAULT_VEHTYPE" speed="9.20" pos="19.42" lane="15.0.00_0" slope="0.00"/>
        <vehicle id="5" x="88.47" y="77.47" angle="179.99" type="DEFAULT_VEHTYPE" speed="10.85" pos="42.82" lane="-24.0.00_0" slope="0.00"/>
        <vehicle id="6" x="334.90" y="228.65" angle="180.03" type="DEFAULT_VEHTYPE" speed="9.19" pos="30.93" lane="-17.0.00_0" slope="0.00"/>
        <vehicle id="7" x="88.45" y="231.54" angle="179.99" type="DEFAULT_VEHTYPE" speed="9.33" pos="28.91" lane="-22.0.00_0" slope="0.00"/>
        <vehicle id="8" x="2.50" y="7.87" angle="328.27" type="DEFAULT_VEHTYPE" speed="3.37" pos="10.17" lane="-20.0.00_0" slope="0.00"/>
        <vehicle id="9" x="133.28" y="273.12" angle="269.99" type="DEFAULT_VEHTYPE" speed="4.15" pos="11.77" lane="9.0.00_0" slope="0.00"/>
    </timestep>
    <timestep time="12.00">
        <vehicle id="0" x="90.39" y="3.32" angle="45.76" type="DEFAULT_VEHTYPE" speed="6.00" pos="4.81" lane=":195_6_0" slope="0.00"/>
        <vehicle id="1" x="334.93" y="282.76" angle="180.03" type="DEFAULT_VEHTYPE" speed="11.86" pos="35.06" lane="-16.0.00_0" slope="0.00"/>
        <vehicle id="10" x="316.03" y="273.14" angle="269.99" type="DEFAULT_VEHTYPE" speed="3.12" pos="9.66" lane="10.0.00_0" slope="0.00"/>
        <vehicle id="11" x="334.95" y="310.42" angle="180.03" type="DEFAULT_VEHTYPE" speed="2.30" pos="7.40" lane="-16.0.00_0" slope="0.00"/>
        <vehicle id="12" x="173.24" y="326.65" angle="90.00" type="DEFAULT_VEHTYPE" speed="0.00" pos="5.10" lane="1.0.00_0" slope="0.00"/>
        <vehicle id="2" x="373.14" y="326.60" angle="90.03" type="DEFAULT_VEHTYPE" speed="11.08" pos="24.85" lane="0.0.00_0" slope="0.00"/>
        <vehicle id="3" x="2.08" y="82.85" angle="0.00" type="DEFAULT_VEHTYPE" speed="13.79" pos="71.69" lane="15.0.00_0" slope="0.00"/>
        <vehicle id="4" x="2.07" y="41.76" angle="0.00" type="DEFAULT_VEHTYPE" speed="11.18" pos="30.60" lane="15.0.00_0" slope="0.00"/>
        <vehicle id="5" x="88.47" y="65.93" angle="179.99" type="DEFAULT_VEHTYPE" speed="11.54" pos="54.35" lane="-24.0.00_0" slope="0.00"/>
        <vehicle id="6" x="334.90" y="217.29" angle="180.03" type="DEFAULT_VEHTYPE" speed="11.36" pos="42.29" lane="-17.0.00_0" slope="0.00"/>
        <vehicle id="7" x="88.45" y="220.40" angle="179.99" type="DEFAULT_VEHTYPE" speed="11.14" pos="40.05" lane="-22.0.00_0" slope="0.00"/>
        <vehicle id="8" x="2.07" y="13.53" angle="357.02" type="DEFAULT_VEHTYPE" speed="5.69" pos="2.37" lane="15.0.00_0" slope="0.00"/>
        <vehicle id="9" x="127.58" y="273.12" angle="269.99" type="DEFAULT_VEHTYPE" speed="5.70" pos="17.47" lane="9.0.00_0" slope="0.00"/>
    </timestep>
    <timestep time="13.00">
        <vehicle id="0" x="92.48" y="11.49" angle="7.65" type="DEFAULT_VEHTYPE" speed="8.58" pos="0.18" lane="24.0.00_0" slope="0.00"/>
        <vehicle id="1" x="334.92" y="270.88" angle="180.03" type="DEFAULT_VEHTYPE" speed="11.88" pos="11.32" lane=":111_1_0" slope="0.00"/>
        <vehicle id="10" x="310.38" y="273.14" angle="269.99" type="DEFAULT_VEHTYPE" speed="5.66" pos="15.31" lane="10.0.00_0" slope="0.00"/>
        <vehicle id="11" x="334.94" y="306.11" angle="180.03" type="DEFAULT_VEHTYPE" speed="4.31" pos="11.71" lane="-16.0.00_0" slope="0.00"/>
        <vehicle id="12" x="175.49" y="326.65" angle="90.00" type="DEFAULT_VEHTYPE" speed="2.25" pos="7.35" lane="1.0.00_0" slope="0.00"/>
        <vehicle id="13" x="395.62" y="323.75" angle="350.47" type="DEFAULT_VEHTYPE" speed="0.00" pos="5.10" lane="11.0.00_0" slope="0.00"/>
        <vehicle id="2" x="385.90" y="326.55" angle="90.49" type="DEFAULT_VEHTYPE" speed="12.76" pos="1.25" lane=":11.0_1_0" slope="0.00"/>
        <vehicle id="3" x="2.07" y="96.64" angle="359.94" type="DEFAULT_VEHTYPE" speed="13.79" pos="85.48" lane="15.0.00_0" slope="0.00"/>
        <vehicle id="4" x="2.08" y="55.37" angle="0.00" type="DEFAULT_VEHTYPE" speed="13.61" pos="44.21" lane="15.0.00_0" slope="0.00"/>
        <vehicle id="5" x="88.47" y="54.48" angle="179.99" type="DEFAULT_VEHTYPE" speed="11.45" pos="65.81" lane="-24.0.00_0" slope="0.00"/>
        <vehicle id="6" x="334.89" y="203.44" angle="180.05" type="DEFAULT_VEHTYPE" speed="13.84" pos="4.59" lane=":139_1_0" slope="0.00"/>
        <vehicle id="7" x="88.45" y="209.18" angle="179.99" type="DEFAULT_VEHTYPE" speed="11.22" pos="51.27" lane="-22.0.00_0" slope="0.00"/>
        <vehicle id="8" x="2.07" y="21.19" angle="0.00" type="DEFAULT_VEHTYPE" speed="7.66" pos="10.03" lane="15.0.00_0" slope="0.00"/>
        <vehicle id="9" x="119.35" y="273.11" angle="269.99" type="DEFAULT_VEHTYPE" speed="8.23" pos="25.70" lane="9.0.00_0" slope="0.00"/>
    </timestep>
    <timestep time="14.00">
        <vehicle id="0" x="92.48" y="22.03" angle="359.99" type="DEFAULT_VEHTYPE" speed="10.54" pos="10.72" lane="24.0.00_0" slope="0.00"/>
        <vehicle id="1" x="334.92" y="257.99" angle="180.03" type="DEFAULT_VEHTYPE" speed="12.88" pos="1.59" lane="-17.0.00_0" slope="0.00"/>
        <vehicle id="10" x="302.76" y="273.14" angle="269.99" type="DEFAULT_VEHTYPE" speed="7.62" pos="22.93" lane="10.0.00_0" slope="0.00"/>
        <vehicle id="11" x="334.94" y="299.31" angle="180.03" type="DEFAULT_VEHTYPE" speed="6.80" pos="18.51" lane="-16.0.00_0" slope="0.00"/>
        <vehicle id="12" x="180.21" y="326.65" angle="90.00" type="DEFAULT_VEHTYPE" speed="4.72" pos="12.07" lane="1.0.00_0" slope="0.00"/>
        <vehicle id="13" x="394.91" y="325.27" angle="342.53" type="DEFAULT_VEHTYPE" speed="1.68" pos="6.78" lane="11.0.00_0" slope="0.00"/>
        <vehicle id="14" x="139.92" y="330.66" angle="270.00" type="DEFAULT_VEHTYPE" speed="0.00" pos="5.10" lane="-2.0.00_0" slope="0.00"/>
        <vehicle id="2" x="392.44" y="316.62" angle="176.62" type="DEFAULT_VEHTYPE" speed="13.63" pos="2.14" lane="8.0.00_0" slope="0.00"/>
        <vehicle id="3" x="2.07" y="111.03" angle="0.00" type="DEFAULT_VEHTYPE" speed="14.39" pos="99.87" lane="15.0.00_0" slope="0.00"/>
        <vehicle id="4" x="2.08" y="68.85" angle="0.00" type="DEFAULT_VEHTYPE" speed="13.48" pos="57.69" lane="15.0.00_0" slope="0.00"/>
        <vehicle id="5" x="88.47" y="43.91" angle="179.99" type="DEFAULT_VEHTYPE" speed="10.57" pos="76.38" lane="-24.0.00_0" slope="0.00"/>
        <vehicle id="6" x="334.87" y="190.14" angle="180.05" type="DEFAULT_VEHTYPE" speed="13.30" pos="17.89" lane=":139_1_0" slope="0.00"/>
        <vehicle id="7" x="88.45" y="197.33" angle="180.00" type="DEFAULT_VEHTYPE" speed="11.85" pos="11.44" lane=":156_0_0" slope="0.00"/>
        <vehicle id="8" x="2.07" y="30.52" angle="0.00" type="DEFAULT_VEHTYPE" speed="9.33" pos="19.36" lane="15.0.00_0" slope="0.00"/>
        <vehicle id="9" x="109.90" y="273.11" angle="269.99" type="DEFAULT_VEHTYPE" speed="9.44" pos="35.15" lane="9.0.00_0" slope="0.00"/>
    </timestep>
    <timestep time="15.00">
        <vehicle id="0" x="92.48" y="35.05" angle="359.99" type="DEFAULT_VEHTYPE" speed="13.02" pos="23.74" lane="24.0.00_0" slope="0.00"/>
        <vehicle id="1" x="334.91" y="245.84" angle="180.03" type="DEFAULT_VEHTYPE" speed="12.16" pos="13.74" lane="-17.0.00_0" slope="0.00"/>
        <vehicle id="10" x="293.31" y="273.14" angle="269.99" type="DEFAULT_VEHTYPE" speed="9.45" pos="32.38" lane="10.0.00_0" slope="0.00"/>
        <vehicle id="11" x="334.93" y="290.42" angle="180.03" type="DEFAULT_VEHTYPE" speed="8.88" pos="27.40" lane="-16.0.00_0" slope="0.00"/>
        <vehicle id="12" x="186.27" y="326.65" angle="90.00" type="DEFAULT_VEHTYPE" speed="6.06" pos="18.13" lane="1.0.00_0" slope="0.00"/>
        <vehicle id="13" x="392.73" y="327.91" angle="325.01" type="DEFAULT_VEHTYPE" speed="3.43" pos="10.21" lane="11.0.00_0" slope="0.00"/>
        <vehicle id="14" x="137.93" y="330.66" angle="270.00" type="DEFAULT_VEHTYPE" speed="1.99" pos="7.09" lane="-2.0.00_0" slope="0.00"/>
        <vehicle id="15" x="16.19" y="326.63" angle="89.98" type="DEFAULT_VEHTYPE" speed="0.00" pos="5.10" lane="3.0.00_0" slope="0.00"/>
        <vehicle id="2" x="392.42" y="302.77" angle="180.11" type="DEFAULT_VEHTYPE" speed="13.85" pos="15.99" lane="8.0.00_0" slope="0.00"/>
        <vehicle id="3" x="2.06" y="126.03" angle="0.00" type="DEFAULT_VEHTYPE" speed="15.00" pos="114.87" lane="15.0.00_0" slope="0.00"/>
        <vehicle id="4" x="2.08" y="82.84" angle="0.00" type="DEFAULT_VEHTYPE" speed="13.99" pos="71.68" lane="15.0.00_0" slope="0.00"/>
        <vehicle id="5" x="88.48" y="32.80" angle="179.99" type="DEFAULT_VEHTYPE" speed="11.11" pos="87.49" lane="-24.0.00_0" slope="0.00"/>
        <vehicle id="6" x="334.87" y="175.70" angle="180.03" type="DEFAULT_VEHTYPE" speed="14.45" pos="9.25" lane="-18.0.00_0" slope="0.00"/>
        <vehicle id="7" x="88.45" y="185.84" angle="180.00" type="DEFAULT_VEHTYPE" speed="11.50" pos="0.93" lane="-23.0.00_0" slope="0.00"/>
        <vehicle id="8" x="2.07" y="41.60" angle="0.00" type="DEFAULT_VEHTYPE" speed="11.08" pos="30.44" lane="15.0.00_0" slope="0.00"/>
        <vehicle id="9" x="104.20" y="273.11" angle="269.99" type="DEFAULT_VEHTYPE" speed="5.71" pos="40.85" lane="9.0.00_0" slope="0.00"/>
    </timestep>
    <timestep time="16.00">
        <vehicle id="0" x="92.47" y="48.55" angle="359.99" type="DEFAULT_VEHTYPE" speed="13.50" pos="37.24" lane="24.0.00_0" slope="0.00"/>
        <vehicle id="1" x="334.90" y="233.22" angle="180.03" type="DEFAULT_VEHTYPE" speed="12.62" pos="26.36" lane="-17.0.00_0" slope="0.00"/>
        <vehicle id="10" x="281.31" y="273.13" angle="269.99" type="DEFAULT_VEHTYPE" speed="11.99" pos="44.38" lane="10.0.00_0" slope="0.00"/>
        <vehicle id="11" x="334.93" y="283.05" angle="180.03" type="DEFAULT_VEHTYPE" speed="7.38" pos="34.77" lane="-16.0.00_0" slope="0.00"/>
        <vehicle id="12" x="193.76" y="326.65" angle="90.00" type="DEFAULT_VEHTYPE" speed="7.48" pos="25.61" lane="1.0.00_0" slope="0.00"/>
        <vehicle id="13" x="388.23" y="330.28" angle="297.41" type="DEFAULT_VEHTYPE" speed="5.14" pos="15.35" lane="11.0.00_0" slope="0.00"/>
        <vehicle id="14" x="134.08" y="330.66" angle="270.00" type="DEFAULT_VEHTYPE" speed="3.84" pos="10.93" lane="-2.0.00_0" slope="0.00"/>
        <vehicle id="15" x="18.54" y="326.63" angle="89.98" type="DEFAULT_VEHTYPE" speed="2.35" pos="7.45" lane="3.0.00_0" slope="0.00"/>
        <vehicle id="16" x="338.93" y="287.29" angle="0.03" type="DEFAULT_VEHTYPE" speed="0.00" pos="5.10" lane="16.0.00_0" slope="0.00"/>
        <vehicle id="2" x="392.40" y="289.88" angle="180.08" type="DEFAULT_VEHTYPE" speed="12.89" pos="28.88" lane="8.0.00_0" slope="0.00"/>
        <vehicle id="3" x="2.05" y="140.26" angle="359.91" type="DEFAULT_VEHTYPE" speed="14.23" pos="129.10" lane="15.0.00_0" slope="0.00"/>
        <vehicle id="4" x="2.07" y="96.80" angle="359.93" type="DEFAULT_VEHTYPE" speed="13.96" pos="85.64" lane="15.0.00_0" slope="0.00"/>
        <vehicle id="5" x="88.48" y="21.92" angle="179.99" type="DEFAULT_VEHTYPE" speed="10.88" pos="98.37" lane="-24.0.00_0" slope="0.00"/>
        <vehicle id="6" x="334.86" y="162.06" angle="180.03" type="DEFAULT_VEHTYPE" speed="13.64" pos="22.89" lane="-18.0.00_0" slope="0.00"/>
        <vehicle id="7" x="88.45" y="173.60" angle="179.99" type="DEFAULT_VEHTYPE" speed="12.24" pos="13.17" lane="-23.0.00_0" slope="0.00"/>
        <vehicle id="8" x="2.08" y="54.33" angle="0.05" type="DEFAULT_VEHTYPE" speed="12.73" pos="43.17" lane="15.0.00_0" slope="0.00"/>
        <vehicle id="9" x="97.92" y="273.63" angle="275.98" type="DEFAULT_VEHTYPE" speed="6.32" pos="3.57" lane=":184_2_0" slope="0.00"/>
    </timestep>
    <timestep time="17.00">
        <vehicle id="0" x="92.47" y="63.06" angle="359.99" type="DEFAULT_VEHTYPE" speed="14.51" pos="51.75" lane="24.0.00_0" slope="0.00"/>
        <vehicle id="1" x="334.90" y="220.49" angle="180.03" type="DEFAULT_VEHTYPE" speed="12.72" pos="39.09" lane="-17.0.00_0" slope="0.00"/>
        <vehicle id="10" x="267.68" y="273.13" angle="269.99" type="DEFAULT_VEHTYPE" speed="13.63" pos="58.00" lane="10.0.00_0" slope="0.00"/>
        <vehicle id="11" x="332.41" y="275.28" angle="206.15" type="DEFAULT_VEHTYPE" speed="8.42" pos="7.57" lane=":111_0_0" slope="0.00"/>
        <vehicle id="12" x="202.77" y="326.65" angle="90.00" type="DEFAULT_VEHTYPE" speed="9.01" pos="34.63" lane="1.0.00_0" slope="0.00"/>
        <vehicle id="13" x="381.74" y="330.59" angle="271.25" type="DEFAULT_VEHTYPE" speed="6.51" pos="2.91" lane="-0.0.00_0" slope="0.00"/>
        <vehicle id="14" x="127.69" y="330.66" angle="270.00" type="DEFAULT_VEHTYPE" speed="6.39" pos="17.33" lane="-2.0.00_0" slope="0.00"/>
        <vehicle id="15" x="23.10" y="326.63" angle="89.98" type="DEFAULT_VEHTYPE" speed="4.56" pos="12.01" lane="3.0.00_0" slope="0.00"/>
        <vehicle id="16" x="338.93" y="289.01" angle="0.03" type="DEFAULT_VEHTYPE" speed="1.72" pos="6.82" lane="16.0.00_0" slope="0.00"/>
        <vehicle id="2" x="392.39" y="276.01" angle="180.10" type="DEFAULT_VEHTYPE" speed="13.86" pos="42.75" lane="8.0.00_0" slope="0.00"/>
        <vehicle id="3" x="2.05" y="154.29" angle="0.00" type="DEFAULT_VEHTYPE" speed="14.03" pos="143.13" lane="15.0.00_0" slope="0.00"/>
        <vehicle id="4" x="2.07" y="110.73" angle="0.00" type="DEFAULT_VEHTYPE" speed="13.93" pos="99.57" lane="15.0.00_0" slope="0.00"/>
        <vehicle id="5" x="88.48" y="15.19" angle="179.99" type="DEFAULT_VEHTYPE" speed="6.74" pos="105.10" lane="-24.0.00_0" slope="0.00"/>
        <vehicle id="6" x="334.85" y="147.61" angle="180.03" type="DEFAULT_VEHTYPE" speed="14.45" pos="37.34" lane="-18.0.00_0" slope="0.00"/>
        <vehicle id="7" x="88.46" y="161.38" angle="179.99" type="DEFAULT_VEHTYPE" speed="12.22" pos="25.39" lane="-23.0.00_0" slope="0.00"/>
        <vehicle id="8" x="2.08" y="67.08" angle="0.00" type="DEFAULT_VEHTYPE" speed="12.75" pos="55.92" lane="15.0.00_0" slope="0.00"/>
        <vehicle id="9" x="93.64" y="277.27" angle="313.66" type="DEFAULT_VEHTYPE" speed="5.83" pos="9.40" lane=":184_2_0" slope="0.00"/>
    </timestep>
    <timestep time="18.00">
        <vehicle id="0" x="92.47" y="76.62" angle="359.99" type="DEFAULT_VEHTYPE" speed="13.56" pos="65.31" lane="24.0.00_0" slope="0.00"/>
        <vehicle id="1" x="334.89" y="207.57" angle="180.03" type="DEFAULT_VEHTYPE" speed="12.93" pos="0.46" lane=":139_1_0" slope="0.00"/>
        <vehicle id="10" x="252.85" y="273.13" angle="269.99" type="DEFAULT_VEHTYPE" speed="14.83" pos="72.83" lane="10.0.00_0" slope="0.00"/>
        <vehicle id="11" x="325.13" y="273.14" angle="261.28" type="DEFAULT_VEHTYPE" speed="7.74" pos="0.56" lane="10.0.00_0" slope="0.00"/>
        <vehicle id="12" x="213.15" y="326.65" angle="90.00" type="DEFAULT_VEHTYPE" speed="10.38" pos="45.00" lane="1.0.00_0" slope="0.00"/>
        <vehicle id="13" x="373.67" y="330.60" angle="270.03" type="DEFAULT_VEHTYPE" speed="8.07" pos="10.98" lane="-0.0.00_0" slope="0.00"/>
        <vehicle id="14" x="119.88" y="330.66" angle="270.00" type="DEFAULT_VEHTYPE" speed="7.81" pos="25.13" lane="-2.0.00_0" slope="0.00"/>
        <vehicle id="15" x="29.03" y="326.64" angle="89.98" type="DEFAULT_VEHTYPE" speed="5.93" pos="17.94" lane="3.0.00_0" slope="0.00"/>
        <vehicle id="16" x="338.94" y="292.35" angle="0.03" type="DEFAULT_VEHTYPE" speed="3.34" pos="10.16" lane="16.0.00_0" slope="0.00"/>
        <vehicle id="17" x="320.63" y="133.45" angle="270.01" type="DEFAULT_VEHTYPE" speed="0.00" pos="5.10" lane="12.0.00_0" slope="0.00"/>
        <vehicle id="18" x="154.12" y="312.80" angle="180.08" type="DEFAULT_VEHTYPE" speed="0.00" pos="5.10" lane="-25.0.00_0" slope="0.00"/>
        <vehicle id="2" x="392.37" y="262.46" angle="180.11" type="DEFAULT_VEHTYPE" speed="13.56" pos="56.30" lane="8.0.00_0" slope="0.00"/>
        <vehicle id="3" x="2.04" y="168.32" angle="0.00" type="DEFAULT_VEHTYPE" speed="14.03" pos="157.16" lane="15.0.00_0" slope="0.00"/>
        <vehicle id="4" x="2.06" y="125.02" angle="0.00" type="DEFAULT_VEHTYPE" speed="14.28" pos="113.86" lane="15.0.00_0" slope="0.00"/>
        <vehicle id="5" x="89.05" y="7.30" angle="173.49" type="DEFAULT_VEHTYPE" speed="7.93" pos="4.05" lane=":195_1_0" slope="0.00"/>
        <vehicle id="6" x="334.84" y="133.66" angle="180.05" type="DEFAULT_VEHTYPE" speed="13.95" pos="9.30" lane=":94_1_0" slope="0.00"/>
        <vehicle id="7" x="88.46" y="149.10" angle="179.99" type="DEFAULT_VEHTYPE" speed="12.28" pos="37.67" lane="-23.0.00_0" slope="0.00"/>
        <vehicle id="8" x="2.08" y="79.59" angle="0.00" type="DEFAULT_VEHTYPE" speed="12.51" pos="68.43" lane="15.0.00_0" slope="0.00"/>
        <vehicle id="9" x="92.44" y="282.84" angle="350.64" type="DEFAULT_VEHTYPE" speed="5.78" pos="0.38" lane="21.0.00_0" slope="0.00"/>
    </timestep>
    <timestep time="19.00">
        <vehicle id="0" x="92.47" y="90.15" angle="359.99" type="DEFAULT_VEHTYPE" speed="13.53" pos="78.84" lane="24.0.00_0" slope="0.00"/>
        <vehicle id="1" x="334.88" y="195.44" angle="180.05" type="DEFAULT_VEHTYPE" speed="12.13" pos="12.59" lane=":139_1_0" slope="0.00"/>
        <vehicle id="10" x="238.41" y="273.13" angle="269.99" type="DEFAULT_VEHTYPE" speed="14.44" pos="87.27" lane="10.0.00_0" slope="0.00"/>
        <vehicle id="11" x="315.76" y="273.14" angle="269.99" type="DEFAULT_VEHTYPE" speed="9.37" pos="9.93" lane="10.0.00_0" slope="0.00"/>
        <vehicle id="12" x="225.76" y="326.65" angle="90.00" type="DEFAULT_VEHTYPE" speed="12.61" pos="57.61" lane="1.0.00_0" slope="0.00"/>
        <vehicle id="13" x="363.89" y="330.60" angle="270.03" type="DEFAULT_VEHTYPE" speed="9.78" pos="20.76" lane="-0.0.00_0" slope="0.00"/>
        <vehicle id="14" x="110.43" y="330.66" angle="270.00" type="DEFAULT_VEHTYPE" speed="9.45" pos="34.59" lane="-2.0.00_0" slope="0.00"/>
        <vehicle id="15" x="37.29" y="326.64" angle="89.98" type="DEFAULT_VEHTYPE" speed="8.26" pos="26.20" lane="3.0.00_0" slope="0.00"/>
        <vehicle id="16" x="338.94" y="298.17" angle="0.03" type="DEFAULT_VEHTYPE" speed="5.82" pos="15.98" lane="16.0.00_0" slope="0.00"/>
        <vehicle id="17" x="318.54" y="133.45" angle="270.01" type="DEFAULT_VEHTYPE" speed="2.09" pos="7.19" lane="12.0.00_0" slope="0.00"/>
        <vehicle id="18" x="154.12" y="310.70" angle="180.08" type="DEFAULT_VEHTYPE" speed="2.10" pos="7.20" lane="-25.0.00_0" slope="0.00"/>
        <vehicle id="19" x="395.62" y="323.75" angle="350.47" type="DEFAULT_VEHTYPE" speed="0.00" pos="5.10" lane="11.0.00_0" slope="0.00"/>
        <vehicle id="2" x="392.36" y="249.23" angle="180.04" type="DEFAULT_VEHTYPE" speed="13.23" pos="69.53" lane="8.0.00_0" slope="0.00"/>
        <vehicle id="3" x="2.03" y="182.84" angle="0.00" type="DEFAULT_VEHTYPE" speed="14.52" pos="171.68" lane="15.0.00_0" slope="0.00"/>
        <vehicle id="4" x="2.05" y="138.64" angle="359.89" type="DEFAULT_VEHTYPE" speed="13.63" pos="127.48" lane="15.0.00_0" slope="0.00"/>
        <vehicle id="5" x="91.99" y="1.22" angle="147.79" type="DEFAULT_VEHTYPE" speed="6.90" pos="10.95" lane=":195_1_0" slope="0.00"/>
        <vehicle id="6" x="334.83" y="120.10" angle="180.05" type="DEFAULT_VEHTYPE" speed="13.56" pos="22.85" lane=":94_1_0" slope="0.00"/>