<?xml version="1.0" encoding="UTF-8"?>

<!-- generated on Wed Aug 14 12:00:04 2019 by Eclipse SUMO Version 1.2.0
<configuration xmlns:xsi="http://www.w3.org/2001/XMLSchema-instance" xsi:noNamespaceSchemaLocation="http://sumo.dlr.de/xsd/sumoConfiguration.xsd">

    <input>
        <net-file value="Town01.net.xml"/>
        <route-files value="trips.trips.xml"/>
    </input>

    <output>
        <netstate-dump value="test.log"/>
        <fcd-output value="Town01_Car100_2.log"/>
    </output>

    <time>
        <begin value="0"/>
        <end value="10000"/>
    </time>

</configuration>
-->

<fcd-export xmlns:xsi="http://www.w3.org/2001/XMLSchema-instance" xsi:noNamespaceSchemaLocation="http://sumo.dlr.de/xsd/fcd_file.xsd">
    <timestep time="0.00">
        <vehicle id="0" x="15.32" y="-1.93" angle="90.03" type="DEFAULT_VEHTYPE" speed="0.00" pos="5.10" lane="-5.0.00_0" slope="0.00"/>
    </timestep>
    <timestep time="1.00">
        <vehicle id="0" x="17.53" y="-1.93" angle="90.03" type="DEFAULT_VEHTYPE" speed="2.21" pos="7.31" lane="-5.0.00_0" slope="0.00"/>
        <vehicle id="1" x="352.89" y="-2.00" angle="90.00" type="DEFAULT_VEHTYPE" speed="0.00" pos="5.10" lane="-7.0.00_0" slope="0.00"/>
    </timestep>
    <timestep time="2.00">
        <vehicle id="0" x="22.03" y="-1.94" angle="90.03" type="DEFAULT_VEHTYPE" speed="4.51" pos="11.81" lane="-5.0.00_0" slope="0.00"/>
        <vehicle id="1" x="354.87" y="-2.00" angle="90.00" type="DEFAULT_VEHTYPE" speed="1.98" pos="7.08" lane="-7.0.00_0" slope="0.00"/>
        <vehicle id="2" x="106.58" y="129.47" angle="90.01" type="DEFAULT_VEHTYPE" speed="0.00" pos="5.10" lane="-12.0.00_0" slope="0.00"/>
    </timestep>
    <timestep time="3.00">
        <vehicle id="0" x="28.94" y="-1.94" angle="90.03" type="DEFAULT_VEHTYPE" speed="6.90" pos="18.72" lane="-5.0.00_0" slope="0.00"/>
        <vehicle id="1" x="358.54" y="-2.00" angle="90.00" type="DEFAULT_VEHTYPE" speed="3.67" pos="10.75" lane="-7.0.00_0" slope="0.00"/>
        <vehicle id="2" x="108.50" y="129.47" angle="90.01" type="DEFAULT_VEHTYPE" speed="1.92" pos="7.02" lane="-12.0.00_0" slope="0.00"/>
        <vehicle id="3" x="334.95" y="312.72" angle="180.03" type="DEFAULT_VEHTYPE" speed="0.00" pos="5.10" lane="-16.0.00_0" slope="0.00"/>
    </timestep>
    <timestep time="4.00">
        <vehicle id="0" x="37.53" y="-1.95" angle="90.03" type="DEFAULT_VEHTYPE" speed="8.59" pos="27.31" lane="-5.0.00_0" slope="0.00"/>
        <vehicle id="1" x="363.53" y="-2.00" angle="90.00" type="DEFAULT_VEHTYPE" speed="5.00" pos="15.74" lane="-7.0.00_0" slope="0.00"/>
        <vehicle id="2" x="112.14" y="129.47" angle="90.01" type="DEFAULT_VEHTYPE" speed="3.64" pos="10.66" lane="-12.0.00_0" slope="0.00"/>
        <vehicle id="3" x="334.95" y="310.93" angle="180.03" type="DEFAULT_VEHTYPE" speed="1.79" pos="6.89" lane="-16.0.00_0" slope="0.00"/>
        <vehicle id="4" x="320.63" y="133.45" angle="270.01" type="DEFAULT_VEHTYPE" speed="0.00" pos="5.10" lane="12.0.00_0" slope="0.00"/>
    </timestep>
    <timestep time="5.00">
        <vehicle id="0" x="47.83" y="-1.95" angle="90.03" type="DEFAULT_VEHTYPE" speed="10.31" pos="37.61" lane="-5.0.00_0" slope="0.00"/>
        <vehicle id="1" x="371.04" y="-2.00" angle="90.00" type="DEFAULT_VEHTYPE" speed="7.51" pos="23.25" lane="-7.0.00_0" slope="0.00"/>
        <vehicle id="2" x="117.78" y="129.47" angle="90.01" type="DEFAULT_VEHTYPE" speed="5.64" pos="16.30" lane="-12.0.00_0" slope="0.00"/>
        <vehicle id="3" x="334.94" y="307.04" angle="180.03" type="DEFAULT_VEHTYPE" speed="3.90" pos="10.78" lane="-16.0.00_0" slope="0.00"/>
        <vehicle id="4" x="318.88" y="133.45" angle="270.01" type="DEFAULT_VEHTYPE" speed="1.75" pos="6.85" lane="12.0.00_0" slope="0.00"/>
        <vehicle id="5" x="74.37" y="2.03" angle="270.03" type="DEFAULT_VEHTYPE" speed="0.00" pos="5.10" lane="5.0.00_0" slope="0.00"/>
    </timestep>
    <timestep time="6.00">
        <vehicle id="0" x="59.88" y="-1.96" angle="90.03" type="DEFAULT_VEHTYPE" speed="12.05" pos="49.66" lane="-5.0.00_0" slope="0.00"/>
        <vehicle id="1" x="380.62" y="-2.00" angle="90.00" type="DEFAULT_VEHTYPE" speed="9.58" pos="32.83" lane="-7.0.00_0" slope="0.00"/>
        <vehicle id="2" x="125.87" y="129.47" angle="90.01" type="DEFAULT_VEHTYPE" speed="8.09" pos="24.39" lane="-12.0.00_0" slope="0.00"/>
        <vehicle id="3" x="334.94" y="301.71" angle="180.03" type="DEFAULT_VEHTYPE" speed="5.32" pos="16.11" lane="-16.0.00_0" slope="0.00"/>
        <vehicle id="4" x="315.22" y="133.45" angle="270.01" type="DEFAULT_VEHTYPE" speed="3.66" pos="10.51" lane="12.0.00_0" slope="0.00"/>
        <vehicle id="5" x="73.01" y="2.03" angle="270.03" type="DEFAULT_VEHTYPE" speed="1.36" pos="6.46" lane="5.0.00_0" slope="0.00"/>
        <vehicle id="6" x="5.14" y="3.63" angle="288.52" type="DEFAULT_VEHTYPE" speed="0.00" pos="5.10" lane="-20.0.00_0" slope="0.00"/>
    </timestep>
    <timestep time="7.00">
        <vehicle id="0" x="72.89" y="-1.97" angle="90.03" type="DEFAULT_VEHTYPE" speed="13.01" pos="62.67" lane="-5.0.00_0" slope="0.00"/>
        <vehicle id="1" x="391.33" y="-0.07" angle="69.06" type="DEFAULT_VEHTYPE" speed="11.09" pos="7.40" lane="14.0.00_0" slope="0.00"/>
        <vehicle id="2" x="136.15" y="129.47" angle="90.01" type="DEFAULT_VEHTYPE" speed="10.28" pos="34.67" lane="-12.0.00_0" slope="0.00"/>
        <vehicle id="3" x="334.94" y="294.09" angle="180.03" type="DEFAULT_VEHTYPE" speed="7.62" pos="23.73" lane="-16.0.00_0" slope="0.00"/>
        <vehicle id="4" x="309.48" y="133.45" angle="270.01" type="DEFAULT_VEHTYPE" speed="5.75" pos="16.25" lane="12.0.00_0" slope="0.00"/>
        <vehicle id="5" x="70.15" y="2.04" angle="270.03" type="DEFAULT_VEHTYPE" speed="2.86" pos="9.32" lane="5.0.00_0" slope="0.00"/>
        <vehicle id="6" x="3.76" y="5.25" angle="306.60" type="DEFAULT_VEHTYPE" speed="2.14" pos="7.24" lane="-20.0.00_0" slope="0.00"/>
        <vehicle id="7" x="334.87" y="179.84" angle="180.03" type="DEFAULT_VEHTYPE" speed="0.00" pos="5.10" lane="-18.0.00_0" slope="0.00"/>
    </timestep>
    <timestep time="8.00">
        <vehicle id="0" x="81.44" y="-1.68" angle="86.71" type="DEFAULT_VEHTYPE" speed="8.57" pos="1.99" lane=":195_5_0" slope="0.00"/>
        <vehicle id="1" x="396.41" y="10.50" angle="6.68" type="DEFAULT_VEHTYPE" speed="12.46" pos="0.43" lane="-8.0.00_0" slope="0.00"/>
        <vehicle id="2" x="148.32" y="129.47" angle="90.01" type="DEFAULT_VEHTYPE" speed="12.17" pos="46.84" lane="-12.0.00_0" slope="0.00"/>
        <vehicle id="3" x="334.93" y="285.03" angle="180.03" type="DEFAULT_VEHTYPE" speed="9.07" pos="32.79" lane="-16.0.00_0" slope="0.00"/>
        <vehicle id="4" x="302.15" y="133.45" angle="270.01" type="DEFAULT_VEHTYPE" speed="7.33" pos="23.58" lane="12.0.00_0" slope="0.00"/>
        <vehicle id="5" x="65.83" y="2.04" angle="270.03" type="DEFAULT_VEHTYPE" speed="4.32" pos="13.64" lane="5.0.00_0" slope="0.00"/>
        <vehicle id="6" x="2.35" y="8.48" angle="332.08" type="DEFAULT_VEHTYPE" speed="3.55" pos="10.79" lane="-20.0.00_0" slope="0.00"/>
        <vehicle id="7" x="334.87" y="178.13" angle="180.03" type="DEFAULT_VEHTYPE" speed="1.71" pos="6.81" lane="-18.0.00_0" slope="0.00"/>
        <vehicle id="8" x="106.55" y="269.11" angle="89.99" type="DEFAULT_VEHTYPE" speed="0.00" pos="5.10" lane="-9.0.00_0" slope="0.00"/>
    </timestep>
    <timestep time="9.00">
        <vehicle id="0" x="86.35" y="-0.41" angle="75.30" type="DEFAULT_VEHTYPE" speed="5.15" pos="7.14" lane=":195_5_0" slope="0.00"/>
        <vehicle id="1" x="396.41" y="22.25" angle="359.98" type="DEFAULT_VEHTYPE" speed="11.75" pos="12.18" lane="-8.0.00_0" slope="0.00"/>
        <vehicle id="2" x="162.02" y="129.46" angle="90.01" type="DEFAULT_VEHTYPE" speed="13.70" pos="60.54" lane="-12.0.00_0" slope="0.00"/>
        <vehicle id="3" x="334.93" y="273.95" angle="180.03" type="DEFAULT_VEHTYPE" speed="11.08" pos="8.25" lane=":111_1_0" slope="0.00"/>
        <vehicle id="4" x="293.22" y="133.45" angle="270.01" type="DEFAULT_VEHTYPE" speed="8.92" pos="32.51" lane="12.0.00_0" slope="0.00"/>
        <vehicle id="5" x="58.96" y="2.04" angle="270.03" type="DEFAULT_VEHTYPE" speed="6.87" pos="20.51" lane="5.0.00_0" slope="0.00"/>
        <vehicle id="6" x="2.07" y="13.55" angle="357.07" type="DEFAULT_VEHTYPE" speed="5.09" pos="2.39" lane="15.0.00_0" slope="0.00"/>
        <vehicle id="7" x="334.86" y="173.89" angle="180.03" type="DEFAULT_VEHTYPE" speed="4.24" pos="11.05" lane="-18.0.00_0" slope="0.00"/>
        <vehicle id="8" x="108.10" y="269.11" angle="89.99" type="DEFAULT_VEHTYPE" speed="1.55" pos="6.65" lane="-9.0.00_0" slope="0.00"/>
    </timestep>
    <timestep time="10.00">
        <vehicle id="0" x="91.25" y="4.78" angle="36.10" type="DEFAULT_VEHTYPE" speed="7.36" pos="6.51" lane=":195_6_0" slope="0.00"/>
        <vehicle id="1" x="396.40" y="35.19" angle="0.00" type="DEFAULT_VEHTYPE" speed="12.93" pos="25.12" lane="-8.0.00_0" slope="0.00"/>
        <vehicle id="10" x="92.46" y="147.39" angle="359.99" type="DEFAULT_VEHTYPE" speed="0.00" pos="5.10" lane="23.0.00_0" slope="0.00"/>
        <vehicle id="2" x="175.35" y="129.46" angle="90.01" type="DEFAULT_VEHTYPE" speed="13.32" pos="73.86" lane="-12.0.00_0" slope="0.00"/>
        <vehicle id="3" x="334.92" y="260.53" angle="180.03" type="DEFAULT_VEHTYPE" speed="13.42" pos="21.67" lane=":111_1_0" slope="0.00"/>
        <vehicle id="4" x="282.21" y="133.45" angle="270.01" type="DEFAULT_VEHTYPE" speed="11.01" pos="43.52" lane="12.0.00_0" slope="0.00"/>
        <vehicle id="5" x="50.03" y="2.05" angle="270.03" type="DEFAULT_VEHTYPE" speed="8.93" pos="29.44" lane="5.0.00_0" slope="0.00"/>
        <vehicle id="6" x="2.07" y="20.07" angle="0.00" type="DEFAULT_VEHTYPE" speed="6.52" pos="8.91" lane="15.0.00_0" slope="0.00"/>
        <vehicle id="7" x="334.86" y="167.63" angle="180.03" type="DEFAULT_VEHTYPE" speed="6.26" pos="17.31" lane="-18.0.00_0" slope="0.00"/>
        <vehicle id="8" x="111.29" y="269.11" angle="89.99" type="DEFAULT_VEHTYPE" speed="3.19" pos="9.84" lane="-9.0.00_0" slope="0.00"/>
    </timestep>
    <timestep time="11.00">
        <vehicle id="0" x="92.48" y="14.55" angle="2.79" type="DEFAULT_VEHTYPE" speed="9.94" pos="3.24" lane="24.0.00_0" slope="0.00"/>
        <vehicle id="1" x="396.40" y="47.89" angle="359.99" type="DEFAULT_VEHTYPE" speed="12.70" pos="37.82" lane="-8.0.00_0" slope="0.00"/>
        <vehicle id="10" x="92.46" y="149.40" angle="359.99" type="DEFAULT_VEHTYPE" speed="2.01" pos="7.11" lane="23.0.00_0" slope="0.00"/>
        <vehicle id="11" x="334.87" y="179.84" angle="180.03" type="DEFAULT_VEHTYPE" speed="0.00" pos="5.10" lane="-18.0.00_0" slope="0.00"/>
        <vehicle id="2" x="189.31" y="129.46" angle="90.01" type="DEFAULT_VEHTYPE" speed="13.96" pos="87.82" lane="-12.0.00_0" slope="0.00"/>
        <vehicle id="3" x="334.91" y="246.65" angle="180.03" type="DEFAULT_VEHTYPE" speed="13.88" pos="12.93" lane="-17.0.00_0" slope="0.00"/>
        <vehicle id="4" x="269.46" y="133.46" angle="270.01" type="DEFAULT_VEHTYPE" speed="12.75" pos="56.27" lane="12.0.00_0" slope="0.00"/>
        <vehicle id="5" x="38.69" y="2.05" angle="270.03" type="DEFAULT_VEHTYPE" speed="11.34" pos="40.78" lane="5.0.00_0" slope="0.00"/>
        <vehicle id="6" x="2.07" y="29.19" angle="0.00" type="DEFAULT_VEHTYPE" speed="9.12" pos="18.03" lane="15.0.00_0" slope="0.00"/>
        <vehicle id="7" x="334.86" y="160.07" angle="180.03" type="DEFAULT_VEHTYPE" speed="7.56" pos="24.87" lane="-18.0.00_0" slope="0.00"/>
        <vehicle id="8" x="116.36" y="269.11" angle="89.99" type="DEFAULT_VEHTYPE" speed="5.06" pos="14.91" lane="-9.0.00_0" slope="0.00"/>
        <vehicle id="9" x="2.07" y="16.26" angle="0.00" type="DEFAULT_VEHTYPE" speed="0.00" pos="5.10" lane="15.0.00_0" slope="0.00"/>
    </timestep>
    <timestep time="12.00">
        <vehicle id="0" x="92.48" y="26.44" angle="359.99" type="DEFAULT_VEHTYPE" speed="11.90" pos="15.13" lane="24.0.00_0" slope="0.00"/>
        <vehicle id="1" x="396.39" y="60.11" angle="0.00" type="DEFAULT_VEHTYPE" speed="12.22" pos="50.04" lane="-8.0.00_0" slope="0.00"/>
        <vehicle id="10" x="92.46" y="153.24" angle="359.99" type="DEFAULT_VEHTYPE" speed="3.84" pos="10.95" lane="23.0.00_0" slope="0.00"/>
        <vehicle id="11" x="334.87" y="178.51" angle="180.03" type="DEFAULT_VEHTYPE" speed="1.33" pos="6.43" lane="-18.0.00_0" slope="0.00"/>
        <vehicle id="12" x="106.55" y="269.11" angle="89.99" type="DEFAULT_VEHTYPE" speed="0.00" pos="5.10" lane="-9.0.00_0" slope="0.00"/>
        <vehicle id="2" x="202.48" y="129.46" angle="90.01" type="DEFAULT_VEHTYPE" speed="13.17" pos="100.99" lane="-12.0.00_0" slope="0.00"/>
        <vehicle id="3" x="334.90" y="232.89" angle="180.03" type="DEFAULT_VEHTYPE" speed="13.76" pos="26.69" lane="-17.0.00_0" slope="0.00"/>
        <vehicle id="4" x="255.67" y="133.46" angle="270.01" type="DEFAULT_VEHTYPE" speed="13.80" pos="70.06" lane="12.0.00_0" slope="0.00"/>
        <vehicle id="5" x="27.26" y="2.06" angle="270.03" type="DEFAULT_VEHTYPE" speed="11.43" pos="52.21" lane="5.0.00_0" slope="0.00"/>
        <vehicle id="6" x="2.07" y="40.48" angle="0.00" type="DEFAULT_VEHTYPE" speed="11.29" pos="29.32" lane="15.0.00_0" slope="0.00"/>
        <vehicle id="7" x="334.85" y="150.92" angle="180.03" type="DEFAULT_VEHTYPE" speed="9.16" pos="34.03" lane="-18.0.00_0" slope="0.00"/>
        <vehicle id="8" x="122.93" y="269.11" angle="89.99" type="DEFAULT_VEHTYPE" speed="6.58" pos="21.48" lane="-9.0.00_0" slope="0.00"/>
        <vehicle id="9" x="2.07" y="18.69" angle="0.00" type="DEFAULT_VEHTYPE" speed="2.43" pos="7.53" lane="15.0.00_0" slope="0.00"/>
    </timestep>
    <timestep time="13.00">
        <vehicle id="0" x="92.47" y="40.82" angle="359.99" type="DEFAULT_VEHTYPE" speed="14.38" pos="29.51" lane="24.0.00_0" slope="0.00"/>
        <vehicle id="1" x="396.39" y="72.78" angle="0.00" type="DEFAULT_VEHTYPE" speed="12.67" pos="62.71" lane="-8.0.00_0" slope="0.00"/>
        <vehicle id="10" x="92.46" y="158.61" angle="359.99" type="DEFAULT_VEHTYPE" speed="5.37" pos="16.32" lane="23.0.00_0" slope="0.00"/>
        <vehicle id="11" x="334.87" y="175.68" angle="180.03" type="DEFAULT_VEHTYPE" speed="2.83" pos="9.26" lane="-18.0.00_0" slope="0.00"/>
        <vehicle id="12" x="108.66" y="269.11" angle="89.99" type="DEFAULT_VEHTYPE" speed="2.11" pos="7.21" lane="-9.0.00_0" slope="0.00"/>
        <vehicle id="13" x="172.33" y="269.12" angle="89.99" type="DEFAULT_VEHTYPE" speed="0.00" pos="5.10" lane="-10.0.00_0" slope="0.00"/>
        <vehicle id="2" x="215.67" y="129.46" angle="90.01" type="DEFAULT_VEHTYPE" speed="13.19" pos="114.19" lane="-12.0.00_0" slope="0.00"/>
        <vehicle id="3" x="334.90" y="218.58" angle="180.03" type="DEFAULT_VEHTYPE" speed="14.32" pos="41.00" lane="-17.0.00_0" slope="0.00"/>
        <vehicle id="4" x="241.79" y="133.46" angle="270.01" type="DEFAULT_VEHTYPE" speed="13.87" pos="83.94" lane="12.0.00_0" slope="0.00"/>
        <vehicle id="5" x="15.89" y="2.07" angle="270.03" type="DEFAULT_VEHTYPE" speed="11.37" pos="63.58" lane="5.0.00_0" slope="0.00"/>
        <vehicle id="6" x="2.08" y="53.81" angle="0.08" type="DEFAULT_VEHTYPE" speed="13.33" pos="42.65" lane="15.0.00_0" slope="0.00"/>
        <vehicle id="7" x="334.85" y="143.97" angle="180.03" type="DEFAULT_VEHTYPE" speed="6.94" pos="40.97" lane="-18.0.00_0" slope="0.00"/>
        <vehicle id="8" x="131.56" y="269.12" angle="89.99" type="DEFAULT_VEHTYPE" speed="8.62" pos="30.11" lane="-9.0.00_0" slope="0.00"/>
        <vehicle id="9" x="2.07" y="23.53" angle="0.00" type="DEFAULT_VEHTYPE" speed="4.85" pos="12.37" lane="15.0.00_0" slope="0.00"/>
    </timestep>
    <timestep time="14.00">
        <vehicle id="0" x="92.47" y="54.32" angle="359.99" type="DEFAULT_VEHTYPE" speed="13.50" pos="43.02" lane="24.0.00_0" slope="0.00"/>
        <vehicle id="1" x="396.38" y="85.80" angle="0.00" type="DEFAULT_VEHTYPE" speed="13.02" pos="75.73" lane="-8.0.00_0" slope="0.00"/>
        <vehicle id="10" x="92.45" y="166.40" angle="359.99" type="DEFAULT_VEHTYPE" speed="7.80" pos="24.12" lane="23.0.00_0" slope="0.00"/>
        <vehicle id="11" x="334.86" y="170.37" angle="180.03" type="DEFAULT_VEHTYPE" speed="5.31" pos="14.57" lane="-18.0.00_0" slope="0.00"/>
        <vehicle id="12" x="112.82" y="269.11" angle="89.99" type="DEFAULT_VEHTYPE" speed="4.15" pos="11.37" lane="-9.0.00_0" slope="0.00"/>
        <vehicle id="13" x="174.21" y="269.12" angle="89.99" type="DEFAULT_VEHTYPE" speed="1.88" pos="6.98" lane="-10.0.00_0" slope="0.00"/>
        <vehicle id="14" x="154.12" y="312.80" angle="180.08" type="DEFAULT_VEHTYPE" speed="0.00" pos="5.10" lane="-25.0.00_0" slope="0.00"/>
        <vehicle id="2" x="229.20" y="129.46" angle="90.01" type="DEFAULT_VEHTYPE" speed="13.53" pos="127.71" lane="-12.0.00_0" slope="0.00"/>
        <vehicle id="3" x="334.89" y="204.11" angle="180.05" type="DEFAULT_VEHTYPE" speed="14.46" pos="3.92" lane=":139_1_0" slope="0.00"/>
        <vehicle id="4" x="228.11" y="133.46" angle="270.01" type="DEFAULT_VEHTYPE" speed="13.68" pos="97.62" lane="12.0.00_0" slope="0.00"/>
        <vehicle id="5" x="5.69" y="3.27" angle="284.21" type="DEFAULT_VEHTYPE" speed="10.45" pos="4.45" lane="-20.0.00_0" slope="0.00"/>
        <vehicle id="6" x="2.08" y="67.21" angle="0.00" type="DEFAULT_VEHTYPE" speed="13.40" pos="56.05" lane="15.0.00_0" slope="0.00"/>
        <vehicle id="7" x="333.85" y="138.05" angle="191.58" type="DEFAULT_VEHTYPE" speed="6.08" pos="5.06" lane=":94_0_0" slope="0.00"/>
        <vehicle id="8" x="141.58" y="269.12" angle="89.99" type="DEFAULT_VEHTYPE" speed="10.02" pos="40.13" lane="-9.0.00_0" slope="0.00"/>
        <vehicle id="9" x="2.07" y="29.74" angle="0.00" type="DEFAULT_VEHTYPE" speed="6.20" pos="18.58" lane="15.0.00_0" slope="0.00"/>
    </timestep>
    <timestep time="15.00">
        <vehicle id="0" x="92.47" y="68.83" angle="359.99" type="DEFAULT_VEHTYPE" speed="14.51" pos="57.53" lane="24.0.00_0" slope="0.00"/>
        <vehicle id="1" x="396.38" y="98.55" angle="0.00" type="DEFAULT_VEHTYPE" speed="12.75" pos="88.48" lane="-8.0.00_0" slope="0.00"/>
        <vehicle id="10" x="92.45" y="175.64" angle="359.99" type="DEFAULT_VEHTYPE" speed="9.24" pos="33.36" lane="23.0.00_0" slope="0.00"/>
        <vehicle id="11" x="334.86" y="162.77" angle="180.03" type="DEFAULT_VEHTYPE" speed="7.60" pos="22.17" lane="-18.0.00_0" slope="0.00"/>
        <vehicle id="12" x="118.33" y="269.11" angle="89.99" type="DEFAULT_VEHTYPE" speed="5.51" pos="16.88" lane="-9.0.00_0" slope="0.00"/>
        <vehicle id="13" x="178.03" y="269.12" angle="89.99" type="DEFAULT_VEHTYPE" speed="3.82" pos="10.80" lane="-10.0.00_0" slope="0.00"/>
        <vehicle id="14" x="154.12" y="310.70" angle="180.08" type="DEFAULT_VEHTYPE" speed="2.10" pos="7.20" lane="-25.0.00_0" slope="0.00"/>
        <vehicle id="15" x="88.45" y="181.67" angle="179.99" type="DEFAULT_VEHTYPE" speed="0.00" pos="5.10" lane="-23.0.00_0" slope="0.00"/>
        <vehicle id="2" x="242.32" y="129.46" angle="90.01" type="DEFAULT_VEHTYPE" speed="13.12" pos="140.83" lane="-12.0.00_0" slope="0.00"/>
        <vehicle id="3" x="334.88" y="191.82" angle="180.05" type="DEFAULT_VEHTYPE" speed="12.29" pos="16.21" lane=":139_1_0" slope="0.00"/>
        <vehicle id="4" x="214.48" y="133.46" angle="270.01" type="DEFAULT_VEHTYPE" speed="13.63" pos="111.25" lane="12.0.00_0" slope="0.00"/>
        <vehicle id="5" x="2.07" y="12.69" angle="354.60" type="DEFAULT_VEHTYPE" speed="10.57" pos="1.53" lane="15.0.00_0" slope="0.00"/>
        <vehicle id="6" x="2.08" y="81.12" angle="0.00" type="DEFAULT_VEHTYPE" speed="13.91" pos="69.96" lane="15.0.00_0" slope="0.00"/>
        <vehicle id="7" x="329.61" y="134.02" angle="230.00" type="DEFAULT_VEHTYPE" speed="6.04" pos="11.10" lane=":94_0_0" slope="0.00"/>
        <vehicle id="8" x="149.10" y="269.71" angle="83.21" type="DEFAULT_VEHTYPE" speed="7.57" pos="4.09" lane=":167_5_0" slope="0.00"/>
        <vehicle id="9" x="2.07" y="37.29" angle="0.00" type="DEFAULT_VEHTYPE" speed="7.55" pos="26.13" lane="15.0.00_0" slope="0.00"/>
    </timestep>
    <timestep time="16.00">
        <vehicle id="0" x="92.47" y="82.39" angle="359.99" type="DEFAULT_VEHTYPE" speed="13.56" pos="71.09" lane="24.0.00_0" slope="0.00"/>
        <vehicle id="1" x="396.37" y="111.08" angle="359.89" type="DEFAULT_VEHTYPE" speed="12.52" pos="101.01" lane="-8.0.00_0" slope="0.00"/>
        <vehicle id="10" x="92.45" y="186.64" angle="359.99" type="DEFAULT_VEHTYPE" speed="11.00" pos="44.36" lane="23.0.00_0" slope="0.00"/>
        <vehicle id="11" x="334.86" y="153.72" angle="180.03" type="DEFAULT_VEHTYPE" speed="9.05" pos="31.23" lane="-18.0.00_0" slope="0.00"/>
        <vehicle id="12" x="126.33" y="269.12" angle="89.99" type="DEFAULT_VEHTYPE" speed="7.99" pos="24.88" lane="-9.0.00_0" slope="0.00"/>
        <vehicle id="13" x="184.28" y="269.12" angle="89.99" type="DEFAULT_VEHTYPE" speed="6.25" pos="17.05" lane="-10.0.00_0" slope="0.00"/>
        <vehicle id="14" x="154.11" y="306.99" angle="180.08" type="DEFAULT_VEHTYPE" speed="3.71" pos="10.91" lane="-25.0.00_0" slope="0.00"/>
        <vehicle id="15" x="88.45" y="179.14" angle="179.99" type="DEFAULT_VEHTYPE" speed="2.53" pos="7.63" lane="-23.0.00_0" slope="0.00"/>
        <vehicle id="16" x="338.93" y="287.29" angle="0.03" type="DEFAULT_VEHTYPE" speed="0.00" pos="5.10" lane="16.0.00_0" slope="0.00"/>
        <vehicle id="2" x="255.46" y="129.46" angle="90.01" type="DEFAULT_VEHTYPE" speed="13.15" pos="153.98" lane="-12.0.00_0" slope="0.00"/>
        <vehicle id="3" x="334.87" y="179.19" angle="180.03" type="DEFAULT_VEHTYPE" speed="12.64" pos="5.76" lane="-18.0.00_0" slope="0.00"/>
        <vehicle id="4" x="200.78" y="133.46" angle="270.01" type="DEFAULT_VEHTYPE" speed="13.69" pos="124.95" lane="12.0.00_0" slope="0.00"/>
        <vehicle id="5" x="2.07" y="23.26" angle="0.00" type="DEFAULT_VEHTYPE" speed="10.57" pos="12.10" lane="15.0.00_0" slope="0.00"/>
        <vehicle id="6" x="2.08" y="95.47" angle="0.00" type="DEFAULT_VEHTYPE" speed="14.36" pos="84.31" lane="15.0.00_0" slope="0.00"/>
        <vehicle id="7" x="323.25" y="133.45" angle="265.76" type="DEFAULT_VEHTYPE" speed="6.39" pos="2.48" lane="12.0.00_0" slope="0.00"/>
        <vehicle id="8" x="155.74" y="274.01" angle="48.38" type="DEFAULT_VEHTYPE" speed="8.26" pos="4.36" lane=":167_6_0" slope="0.00"/>
        <vehicle id="9" x="2.07" y="46.80" angle="0.00" type="DEFAULT_VEHTYPE" speed="9.51" pos="35.64" lane="15.0.00_0" slope="0.00"/>
    </timestep>
    <timestep time="17.00">
        <vehicle id="0" x="92.46" y="95.92" angle="359.99" type="DEFAULT_VEHTYPE" speed="13.53" pos="84.62" lane="24.0.00_0" slope="0.00"/>
        <vehicle id="1" x="396.37" y="123.12" angle="0.00" type="DEFAULT_VEHTYPE" speed="12.05" pos="113.05" lane="-8.0.00_0" slope="0.00"/>
        <vehicle id="10" x="92.45" y="199.08" angle="0.00" type="DEFAULT_VEHTYPE" speed="12.43" pos="12.31" lane=":156_5_0" slope="0.00"/>
        <vehicle id="11" x="334.85" y="143.40" angle="180.03" type="DEFAULT_VEHTYPE" speed="10.32" pos="41.55" lane="-18.0.00_0" slope="0.00"/>
        <vehicle id="12" x="136.50" y="269.12" angle="89.99" type="DEFAULT_VEHTYPE" speed="10.17" pos="35.05" lane="-9.0.00_0" slope="0.00"/>
        <vehicle id="13" x="192.32" y="269.12" angle="89.99" type="DEFAULT_VEHTYPE" speed="8.04" pos="25.09" lane="-10.0.00_0" slope="0.00"/>
        <vehicle id="14" x="154.11" y="300.93" angle="180.08" type="DEFAULT_VEHTYPE" speed="6.06" pos="16.97" lane="-25.0.00_0" slope="0.00"/>
        <vehicle id="15" x="88.45" y="174.10" angle="179.99" type="DEFAULT_VEHTYPE" speed="5.04" pos="12.67" lane="-23.0.00_0" slope="0.00"/>
        <vehicle id="16" x="338.93" y="289.31" angle="0.03" type="DEFAULT_VEHTYPE" speed="2.02" pos="7.12" lane="16.0.00_0" slope="0.00"/>
        <vehicle id="17" x="320.59" y="273.14" angle="269.99" type="DEFAULT_VEHTYPE" speed="0.00" pos="5.10" lane="10.0.00_0" slope="0.00"/>
        <vehicle id="2" x="269.04" y="129.46" angle="90.01" type="DEFAULT_VEHTYPE" speed="13.57" pos="167.55" lane="-12.0.00_0" slope="0.00"/>
        <vehicle id="3" x="334.86" y="167.40" angle="180.03" type="DEFAULT_VEHTYPE" speed="11.79" pos="17.55" lane="-18.0.00_0" slope="0.00"/>
        <vehicle id="4" x="187.67" y="133.46" angle="270.01" type="DEFAULT_VEHTYPE" speed="13.12" pos="138.06" lane="12.0.00_0" slope="0.00"/>
        <vehicle id="5" x="2.07" y="34.76" angle="0.00" type="DEFAULT_VEHTYPE" speed="11.51" pos="23.60" lane="15.0.00_0" slope="0.00"/>
        <vehicle id="6" x="2.07" y="109.16" angle="0.00" type="DEFAULT_VEHTYPE" speed="13.69" pos="98.00" lane="15.0.00_0" slope="0.00"/>
        <vehicle id="7" x="315.53" y="133.45" angle="270.01" type="DEFAULT_VEHTYPE" speed="7.72" pos="10.20" lane="12.0.00_0" slope="0.00"/>
        <vehicle id="8" x="158.01" y="281.89" angle="8.02" type="DEFAULT_VEHTYPE" speed="8.35" pos="12.70" lane=":167_6_0" slope="0.00"/>
        <vehicle id="9" x="2.08" y="57.78" angle="0.00" type="DEFAULT_VEHTYPE" speed="10.98" pos="46.62" lane="15.0.00_0" slope="0.00"/>
    </timestep>
    <timestep time="18.00">
        <vehicle id="0" x="92.46" y="110.11" angle="359.99" type="DEFAULT_VEHTYPE" speed="14.19" pos="98.81" lane="24.0.00_0" slope="0.00"/>
        <vehicle id="1" x="396.37" y="134.95" angle="0.00" type="DEFAULT_VEHTYPE" speed="11.82" pos="124.88" lane="-8.0.00_0" slope="0.00"/>
        <vehicle id="10" x="92.45" y="213.59" angle="359.99" type="DEFAULT_VEHTYPE" speed="14.52" pos="4.82" lane="22.0.00_0" slope="0.00"/>
        <vehicle id="11" x="332.30" y="135.66" angle="206.14" type="DEFAULT_VEHTYPE" speed="8.39" pos="7.94" lane=":94_0_0" slope="0.00"/>
        <vehicle id="12" x="146.29" y="269.30" angle="87.92" type="DEFAULT_VEHTYPE" speed="9.80" pos="1.25" lane=":167_5_0" slope="0.00"/>
        <vehicle id="13" x="202.25" y="269.12" angle="89.99" type="DEFAULT_VEHTYPE" speed="9.93" pos="35.02" lane="-10.0.00_0" slope="0.00"/>
        <vehicle id="14" x="154.09" y="292.61" angle="180.08" type="DEFAULT_VEHTYPE" speed="8.32" pos="25.29" lane="-25.0.00_0" slope="0.00"/>
        <vehicle id="15" x="88.45" y="166.48" angle="179.99" type="DEFAULT_VEHTYPE" speed="7.62" pos="20.29" lane="-23.0.00_0" slope="0.00"/>
        <vehicle id="16" x="338.94" y="293.16" angle="0.03" type="DEFAULT_VEHTYPE" speed="3.85" pos="10.97" lane="16.0.00_0" slope="0.00"/>
        <vehicle id="17" x="319.15" y="273.14" angle="269.99" type="DEFAULT_VEHTYPE" speed="1.44" pos="6.54" lane="10.0.00_0" slope="0.00"/>
        <vehicle id="18" x="-1.97" y="313.55" angle="180.00" type="DEFAULT_VEHTYPE" speed="0.00" pos="5.10" lane="-15.0.00_0" slope="0.00"/>
        <vehicle id="2" x="281.86" y="129.45" angle="90.01" type="DEFAULT_VEHTYPE" speed="12.82" pos="180.38" lane="-12.0.00_0" slope="0.00"/>
        <vehicle id="3" x="334.86" y="156.20" angle="180.03" type="DEFAULT_VEHTYPE" speed="11.20" pos="28.75" lane="-18.0.00_0" slope="0.00"/>
        <vehicle id="4" x="174.09" y="133.46" angle="270.01" type="DEFAULT_VEHTYPE" speed="13.58" pos="151.64" lane="12.0.00_0" slope="0.00"/>
        <vehicle id="5" x="2.07" y="45.50" angle="0.00" type="DEFAULT_VEHTYPE" speed="10.74" pos="34.34" lane="15.0.00_0" slope="0.00"/>
        <vehicle id="6" x="2.06" y="123.37" angle="0.00" type="DEFAULT_VEHTYPE" speed="14.20" pos="112.21" lane="15.0.00_0" slope="0.00"/>
        <vehicle id="7" x="306.48" y="133.45" angle="270.01" type="DEFAULT_VEHTYPE" speed="9.05" pos="19.25" lane="12.0.00_0" slope="0.00"/>
        <vehicle id="8" x="158.09" y="290.92" angle="0.08" type="DEFAULT_VEHTYPE" speed="9.03" pos="8.51" lane="25.0.00_0" slope="0.00"/>
        <vehicle id="9" x="2.08" y="68.84" angle="0.00" type="DEFAULT_VEHTYPE" speed="11.05" pos="57.68" lane="15.0.00_0" slope="0.00"/>
    </timestep>
    <timestep time="19.00">
        <vehicle id="0" x="92.46" y="123.78" angle="360.00" type="DEFAULT_VEHTYPE" speed="13.67" pos="3.50" lane=":128_5_0" slope="0.00"/>
        <vehicle id="1" x="396.37" y="147.18" angle="0.00" type="DEFAULT_VEHTYPE" speed="12.24" pos="137.11" lane="-8.0.00_0" slope="0.00"/>
        <vehicle id="10" x="92.45" y="227.86" angle="359.99" type="DEFAULT_VEHTYPE" speed="14.26" pos="19.09" lane="22.0.00_0" slope="0.00"/>
        <vehicle id="11" x="324.94" y="133.45" angle="262.09" type="DEFAULT_VEHTYPE" speed="7.87" pos="0.79" lane="12.0.00_0" slope="0.00"/>
        <vehicle id="12" x="151.43" y="270.37" angle="78.08" type="DEFAULT_VEHTYPE" speed="5.30" pos="6.56" lane=":167_5_0" slope="0.00"/>
        <vehicle id="13" x="213.50" y="269.13" angle="89.99" type="DEFAULT_VEHTYPE" speed="11.25" pos="46.26" lane="-10.0.00_0" slope="0.00"/>
        <vehicle id="14" x="154.09" y="286.09" angle="180.08" type="DEFAULT_VEHTYPE" speed="6.52" pos="31.82" lane="-25.0.00_0" slope="0.00"/>
        <vehicle id="15" x="88.46" y="156.62" angle="179.99" type="DEFAULT_VEHTYPE" speed="9.85" pos="30.15" lane="-23.0.00_0" slope="0.00"/>
        <vehicle id="16" x="338.94" y="299.36" angle="0.03" type="DEFAULT_VEHTYPE" speed="6.19" pos="17.17" lane="16.0.00_0" slope="0.00"/>
        <vehicle id="17" x="316.03" y="273.14" angle="269.99" type="DEFAULT_VEHTYPE" speed="3.12" pos="9.66" lane="10.0.00_0" slope="0.00"/>
        <vehicle id="18" x="-1.97" y="311.00" angle="180.00" type="DEFAULT_VEHTYPE" speed="2.55" pos="7.65" lane="-15.0.00_0" slope="0.00"/>
        <vehicle id="19" x="338.77" y="16.26" angle="0.03" type="DEFAULT_VEHTYPE" speed="0.00" pos="5.10" lane="19.0.00_0" slope="0.00"/>
        <vehicle id="2" x="294.62" y="129.45" angle="90.01" type="DEFAULT_VEHTYPE" speed="12.76" pos="193.14" lane="-12.0.00_0" slope="0.00"/>
        <vehicle id="3" x="334.85" y="146.53" angle="180.03" type="DEFAULT_VEHTYPE" speed="9.67" pos="38.42" lane="-18.0.00_0" slope="0.00"/>