<?xml version="1.0" encoding="UTF-8"?>

<!-- generated on Wed Aug 14 12:03:00 2019 by Eclipse SUMO Version 1.2.0
<configuration xmlns:xsi="http://www.w3.org/2001/XMLSchema-instance" xsi:noNamespaceSchemaLocation="http://sumo.dlr.de/xsd/sumoConfiguration.xsd">

    <input>
        <net-file value="Town01.net.xml"/>
        <route-files value="trips.trips.xml"/>
    </input>

    <output>
        <netstate-dump value="test.log"/>
        <fcd-output value="Town02_Car100_4.log"/>
    </output>

    <time>
        <begin value="0"/>
        <end value="10000"/>
    </time>

</configuration>
-->

<fcd-export xmlns:xsi="http://www.w3.org/2001/XMLSchema-instance" xsi:noNamespaceSchemaLocation="http://sumo.dlr.de/xsd/fcd_file.xsd">
    <timestep time="0.00">
        <vehicle id="0" x="106.58" y="195.20" angle="90.03" type="DEFAULT_VEHTYPE" speed="0.00" pos="5.10" lane="-4.0.00_0" slope="0.00"/>
    </timestep>
    <timestep time="1.00">
        <vehicle id="0" x="108.71" y="195.20" angle="90.03" type="DEFAULT_VEHTYPE" speed="2.13" pos="7.23" lane="-4.0.00_0" slope="0.00"/>
        <vehicle id="1" x="334.92" y="254.48" angle="180.03" type="DEFAULT_VEHTYPE" speed="0.00" pos="5.10" lane="-17.0.00_0" slope="0.00"/>
    </timestep>
    <timestep time="2.00">
        <vehicle id="0" x="112.60" y="195.19" angle="90.03" type="DEFAULT_VEHTYPE" speed="3.89" pos="11.12" lane="-4.0.00_0" slope="0.00"/>
        <vehicle id="1" x="334.92" y="253.16" angle="180.03" type="DEFAULT_VEHTYPE" speed="1.32" pos="6.42" lane="-17.0.00_0" slope="0.00"/>
        <vehicle id="2" x="107.85" y="326.66" angle="90.00" type="DEFAULT_VEHTYPE" speed="0.00" pos="5.10" lane="2.0.00_0" slope="0.00"/>
    </timestep>
    <timestep time="3.00">
        <vehicle id="0" x="118.82" y="195.19" angle="90.03" type="DEFAULT_VEHTYPE" speed="6.22" pos="17.34" lane="-4.0.00_0" slope="0.00"/>
        <vehicle id="1" x="334.91" y="249.96" angle="180.03" type="DEFAULT_VEHTYPE" speed="3.20" pos="9.62" lane="-17.0.00_0" slope="0.00"/>
        <vehicle id="2" x="109.84" y="326.66" angle="90.00" type="DEFAULT_VEHTYPE" speed="1.99" pos="7.09" lane="2.0.00_0" slope="0.00"/>
        <vehicle id="3" x="320.68" y="2.00" angle="270.00" type="DEFAULT_VEHTYPE" speed="0.00" pos="5.10" lane="6.0.00_0" slope="0.00"/>
    </timestep>
    <timestep time="4.00">
        <vehicle id="0" x="127.62" y="195.19" angle="90.03" type="DEFAULT_VEHTYPE" speed="8.80" pos="26.14" lane="-4.0.00_0" slope="0.00"/>
        <vehicle id="1" x="334.91" y="244.74" angle="180.03" type="DEFAULT_VEHTYPE" speed="5.22" pos="14.84" lane="-17.0.00_0" slope="0.00"/>
        <vehicle id="2" x="113.32" y="326.66" angle="90.00" type="DEFAULT_VEHTYPE" speed="3.48" pos="10.57" lane="2.0.00_0" slope="0.00"/>
        <vehicle id="3" x="319.01" y="2.00" angle="270.00" type="DEFAULT_VEHTYPE" speed="1.67" pos="6.77" lane="6.0.00_0" slope="0.00"/>
        <vehicle id="4" x="139.92" y="330.66" angle="270.00" type="DEFAULT_VEHTYPE" speed="0.00" pos="5.10" lane="-2.0.00_0" slope="0.00"/>
    </timestep>
    <timestep time="5.00">
        <vehicle id="0" x="138.24" y="195.18" angle="90.03" type="DEFAULT_VEHTYPE" speed="10.62" pos="36.76" lane="-4.0.00_0" slope="0.00"/>
        <vehicle id="1" x="334.91" y="237.84" angle="180.03" type="DEFAULT_VEHTYPE" speed="6.90" pos="21.74" lane="-17.0.00_0" slope="0.00"/>
        <vehicle id="2" x="118.81" y="326.66" angle="90.00" type="DEFAULT_VEHTYPE" speed="5.49" pos="16.06" lane="2.0.00_0" slope="0.00"/>
        <vehicle id="3" x="314.98" y="2.00" angle="270.00" type="DEFAULT_VEHTYPE" speed="4.03" pos="10.80" lane="6.0.00_0" slope="0.00"/>
        <vehicle id="4" x="137.93" y="330.66" angle="270.00" type="DEFAULT_VEHTYPE" speed="1.99" pos="7.09" lane="-2.0.00_0" slope="0.00"/>
        <vehicle id="5" x="106.55" y="269.11" angle="89.99" type="DEFAULT_VEHTYPE" speed="0.00" pos="5.10" lane="-9.0.00_0" slope="0.00"/>
    </timestep>
    <timestep time="6.00">
        <vehicle id="0" x="151.06" y="195.18" angle="90.03" type="DEFAULT_VEHTYPE" speed="12.82" pos="49.58" lane="-4.0.00_0" slope="0.00"/>
        <vehicle id="1" x="334.90" y="228.65" angle="180.03" type="DEFAULT_VEHTYPE" speed="9.19" pos="30.93" lane="-17.0.00_0" slope="0.00"/>
        <vehicle id="2" x="125.79" y="326.66" angle="90.00" type="DEFAULT_VEHTYPE" speed="6.97" pos="23.03" lane="2.0.00_0" slope="0.00"/>
        <vehicle id="3" x="308.38" y="2.00" angle="270.00" type="DEFAULT_VEHTYPE" speed="6.61" pos="17.40" lane="6.0.00_0" slope="0.00"/>
        <vehicle id="4" x="134.08" y="330.66" angle="270.00" type="DEFAULT_VEHTYPE" speed="3.84" pos="10.93" lane="-2.0.00_0" slope="0.00"/>
        <vehicle id="5" x="108.10" y="269.11" angle="89.99" type="DEFAULT_VEHTYPE" speed="1.55" pos="6.65" lane="-9.0.00_0" slope="0.00"/>
        <vehicle id="6" x="334.92" y="254.48" angle="180.03" type="DEFAULT_VEHTYPE" speed="0.00" pos="5.10" lane="-17.0.00_0" slope="0.00"/>
    </timestep>
    <timestep time="7.00">
        <vehicle id="0" x="164.85" y="195.17" angle="90.03" type="DEFAULT_VEHTYPE" speed="13.79" pos="63.37" lane="-4.0.00_0" slope="0.00"/>
        <vehicle id="1" x="334.90" y="217.29" angle="180.03" type="DEFAULT_VEHTYPE" speed="11.36" pos="42.29" lane="-17.0.00_0" slope="0.00"/>
        <vehicle id="2" x="134.16" y="326.66" angle="90.00" type="DEFAULT_VEHTYPE" speed="8.37" pos="31.41" lane="2.0.00_0" slope="0.00"/>
        <vehicle id="3" x="299.34" y="2.00" angle="270.00" type="DEFAULT_VEHTYPE" speed="9.04" pos="26.44" lane="6.0.00_0" slope="0.00"/>
        <vehicle id="4" x="127.69" y="330.66" angle="270.00" type="DEFAULT_VEHTYPE" speed="6.39" pos="17.33" lane="-2.0.00_0" slope="0.00"/>
        <vehicle id="5" x="111.29" y="269.11" angle="89.99" type="DEFAULT_VEHTYPE" speed="3.19" pos="9.84" lane="-9.0.00_0" slope="0.00"/>
        <vehicle id="6" x="334.92" y="252.00" angle="180.03" type="DEFAULT_VEHTYPE" speed="2.48" pos="7.58" lane="-17.0.00_0" slope="0.00"/>
        <vehicle id="7" x="334.95" y="312.72" angle="180.03" type="DEFAULT_VEHTYPE" speed="0.00" pos="5.10" lane="-16.0.00_0" slope="0.00"/>
    </timestep>
    <timestep time="8.00">
        <vehicle id="0" x="178.35" y="195.16" angle="90.03" type="DEFAULT_VEHTYPE" speed="13.50" pos="76.87" lane="-4.0.00_0" slope="0.00"/>
        <vehicle id="1" x="334.89" y="205.13" angle="180.04" type="DEFAULT_VEHTYPE" speed="12.16" pos="2.90" lane=":139_1_0" slope="0.00"/>
        <vehicle id="2" x="144.28" y="326.66" angle="90.00" type="DEFAULT_VEHTYPE" speed="10.11" pos="41.52" lane="2.0.00_0" slope="0.00"/>
        <vehicle id="3" x="287.84" y="2.00" angle="270.00" type="DEFAULT_VEHTYPE" speed="11.50" pos="37.94" lane="6.0.00_0" slope="0.00"/>
        <vehicle id="4" x="119.88" y="330.66" angle="270.00" type="DEFAULT_VEHTYPE" speed="7.81" pos="25.13" lane="-2.0.00_0" slope="0.00"/>
        <vehicle id="5" x="116.36" y="269.11" angle="89.99" type="DEFAULT_VEHTYPE" speed="5.06" pos="14.91" lane="-9.0.00_0" slope="0.00"/>
        <vehicle id="6" x="334.91" y="247.33" angle="180.03" type="DEFAULT_VEHTYPE" speed="4.67" pos="12.25" lane="-17.0.00_0" slope="0.00"/>
        <vehicle id="7" x="334.95" y="310.93" angle="180.03" type="DEFAULT_VEHTYPE" speed="1.79" pos="6.89" lane="-16.0.00_0" slope="0.00"/>
        <vehicle id="8" x="389.29" y="-1.11" angle="79.65" type="DEFAULT_VEHTYPE" speed="0.00" pos="5.10" lane="14.0.00_0" slope="0.00"/>
    </timestep>
    <timestep time="9.00">
        <vehicle id="0" x="193.07" y="195.16" angle="90.03" type="DEFAULT_VEHTYPE" speed="14.72" pos="91.60" lane="-4.0.00_0" slope="0.00"/>
        <vehicle id="1" x="334.88" y="193.32" angle="180.05" type="DEFAULT_VEHTYPE" speed="11.81" pos="14.71" lane=":139_1_0" slope="0.00"/>
        <vehicle id="2" x="151.69" y="324.56" angle="111.57" type="DEFAULT_VEHTYPE" speed="7.86" pos="7.12" lane=":26_4_0" slope="0.00"/>
        <vehicle id="3" x="274.94" y="2.00" angle="270.00" type="DEFAULT_VEHTYPE" speed="12.89" pos="50.84" lane="6.0.00_0" slope="0.00"/>
        <vehicle id="4" x="110.43" y="330.66" angle="270.00" type="DEFAULT_VEHTYPE" speed="9.45" pos="34.59" lane="-2.0.00_0" slope="0.00"/>
        <vehicle id="5" x="122.93" y="269.11" angle="89.99" type="DEFAULT_VEHTYPE" speed="6.58" pos="21.48" lane="-9.0.00_0" slope="0.00"/>
        <vehicle id="6" x="334.91" y="240.37" angle="180.03" type="DEFAULT_VEHTYPE" speed="6.96" pos="19.21" lane="-17.0.00_0" slope="0.00"/>
        <vehicle id="7" x="334.94" y="307.04" angle="180.03" type="DEFAULT_VEHTYPE" speed="3.90" pos="10.78" lane="-16.0.00_0" slope="0.00"/>
        <vehicle id="8" x="391.11" y="-0.22" angle="70.28" type="DEFAULT_VEHTYPE" speed="2.03" pos="7.13" lane="14.0.00_0" slope="0.00"/>
        <vehicle id="9" x="320.60" y="199.09" angle="270.03" type="DEFAULT_VEHTYPE" speed="0.00" pos="5.10" lane="4.0.00_0" slope="0.00"/>
    </timestep>
    <timestep time="10.00">
        <vehicle id="0" x="206.86" y="195.15" angle="90.03" type="DEFAULT_VEHTYPE" speed="13.79" pos="105.38" lane="-4.0.00_0" slope="0.00"/>
        <vehicle id="1" x="334.87" y="180.37" angle="180.03" type="DEFAULT_VEHTYPE" speed="12.95" pos="4.57" lane="-18.0.00_0" slope="0.00"/>
        <vehicle id="10" x="2.07" y="16.26" angle="0.00" type="DEFAULT_VEHTYPE" speed="0.00" pos="5.10" lane="15.0.00_0" slope="0.00"/>
        <vehicle id="2" x="154.08" y="318.26" angle="164.56" type="DEFAULT_VEHTYPE" speed="6.92" pos="14.04" lane=":26_4_0" slope="0.00"/>
        <vehicle id="3" x="260.16" y="2.00" angle="270.00" type="DEFAULT_VEHTYPE" speed="14.78" pos="65.62" lane="6.0.00_0" slope="0.00"/>
        <vehicle id="4" x="98.80" y="330.66" angle="269.98" type="DEFAULT_VEHTYPE" speed="11.63" pos="3.95" lane=":77_0_0" slope="0.00"/>
        <vehicle id="5" x="131.56" y="269.12" angle="89.99" type="DEFAULT_VEHTYPE" speed="8.62" pos="30.11" lane="-9.0.00_0" slope="0.00"/>
        <vehicle id="6" x="334.90" y="230.92" angle="180.03" type="DEFAULT_VEHTYPE" speed="9.45" pos="28.66" lane="-17.0.00_0" slope="0.00"/>
        <vehicle id="7" x="334.94" y="301.71" angle="180.03" type="DEFAULT_VEHTYPE" speed="5.32" pos="16.11" lane="-16.0.00_0" slope="0.00"/>
        <vehicle id="8" x="394.10" y="2.38" angle="51.76" type="DEFAULT_VEHTYPE" speed="3.98" pos="11.11" lane="14.0.00_0" slope="0.00"/>
        <vehicle id="9" x="318.28" y="199.09" angle="270.03" type="DEFAULT_VEHTYPE" speed="2.32" pos="7.42" lane="4.0.00_0" slope="0.00"/>
    </timestep>
    <timestep time="11.00">
        <vehicle id="0" x="220.96" y="195.14" angle="90.03" type="DEFAULT_VEHTYPE" speed="14.11" pos="119.49" lane="-4.0.00_0" slope="0.00"/>
        <vehicle id="1" x="334.86" y="168.22" angle="180.03" type="DEFAULT_VEHTYPE" speed="12.15" pos="16.72" lane="-18.0.00_0" slope="0.00"/>
        <vehicle id="10" x="2.07" y="17.69" angle="0.00" type="DEFAULT_VEHTYPE" speed="1.43" pos="6.53" lane="15.0.00_0" slope="0.00"/>
        <vehicle id="11" x="15.32" y="-1.93" angle="90.03" type="DEFAULT_VEHTYPE" speed="0.00" pos="5.10" lane="-5.0.00_0" slope="0.00"/>
        <vehicle id="2" x="154.12" y="310.17" angle="180.08" type="DEFAULT_VEHTYPE" speed="8.10" pos="7.74" lane="-25.0.00_0" slope="0.00"/>
        <vehicle id="3" x="245.20" y="2.00" angle="270.00" type="DEFAULT_VEHTYPE" speed="14.96" pos="80.58" lane="6.0.00_0" slope="0.00"/>
        <vehicle id="4" x="85.45" y="330.65" angle="269.98" type="DEFAULT_VEHTYPE" speed="13.35" pos="17.31" lane=":77_0_0" slope="0.00"/>
        <vehicle id="5" x="142.30" y="269.12" angle="89.99" type="DEFAULT_VEHTYPE" speed="10.74" pos="40.85" lane="-9.0.00_0" slope="0.00"/>
        <vehicle id="6" x="334.90" y="218.89" angle="180.03" type="DEFAULT_VEHTYPE" speed="12.02" pos="40.69" lane="-17.0.00_0" slope="0.00"/>
        <vehicle id="7" x="334.94" y="294.09" angle="180.03" type="DEFAULT_VEHTYPE" speed="7.62" pos="23.73" lane="-16.0.00_0" slope="0.00"/>
        <vehicle id="8" x="396.36" y="8.40" angle="16.46" type="DEFAULT_VEHTYPE" speed="6.54" pos="17.66" lane="14.0.00_0" slope="0.00"/>
        <vehicle id="9" x="313.49" y="199.10" angle="270.03" type="DEFAULT_VEHTYPE" speed="4.78" pos="12.21" lane="4.0.00_0" slope="0.00"/>
    </timestep>
    <timestep time="12.00">
        <vehicle id="0" x="235.28" y="195.13" angle="90.03" type="DEFAULT_VEHTYPE" speed="14.32" pos="133.80" lane="-4.0.00_0" slope="0.00"/>
        <vehicle id="1" x="334.86" y="155.27" angle="180.03" type="DEFAULT_VEHTYPE" speed="12.96" pos="29.68" lane="-18.0.00_0" slope="0.00"/>
        <vehicle id="10" x="2.07" y="21.73" angle="0.00" type="DEFAULT_VEHTYPE" speed="4.03" pos="10.57" lane="15.0.00_0" slope="0.00"/>
        <vehicle id="11" x="17.53" y="-1.93" angle="90.03" type="DEFAULT_VEHTYPE" speed="2.21" pos="7.31" lane="-5.0.00_0" slope="0.00"/>
        <vehicle id="12" x="389.29" y="-1.11" angle="79.65" type="DEFAULT_VEHTYPE" speed="0.00" pos="5.10" lane="14.0.00_0" slope="0.00"/>
        <vehicle id="2" x="154.10" y="299.97" angle="180.08" type="DEFAULT_VEHTYPE" speed="10.20" pos="17.94" lane="-25.0.00_0" slope="0.00"/>
        <vehicle id="3" x="230.71" y="2.01" angle="270.00" type="DEFAULT_VEHTYPE" speed="14.49" pos="95.07" lane="6.0.00_0" slope="0.00"/>
        <vehicle id="4" x="72.05" y="330.65" angle="269.98" type="DEFAULT_VEHTYPE" speed="13.40" pos="7.39" lane="-3.0.00_0" slope="0.00"/>
        <vehicle id="5" x="152.63" y="269.12" angle="90.00" type="DEFAULT_VEHTYPE" speed="10.34" pos="7.58" lane=":167_4_0" slope="0.00"/>
        <vehicle id="6" x="334.89" y="208.90" angle="180.03" type="DEFAULT_VEHTYPE" speed="9.99" pos="50.68" lane="-17.0.00_0" slope="0.00"/>
        <vehicle id="7" x="334.93" y="285.03" angle="180.03" type="DEFAULT_VEHTYPE" speed="9.07" pos="32.79" lane="-16.0.00_0" slope="0.00"/>
        <vehicle id="8" x="396.41" y="16.57" angle="0.00" type="DEFAULT_VEHTYPE" speed="8.27" pos="6.50" lane="-8.0.00_0" slope="0.00"/>
        <vehicle id="9" x="306.92" y="199.10" angle="270.03" type="DEFAULT_VEHTYPE" speed="6.58" pos="18.78" lane="4.0.00_0" slope="0.00"/>
    </timestep>
    <timestep time="13.00">
        <vehicle id="0" x="249.68" y="195.13" angle="90.03" type="DEFAULT_VEHTYPE" speed="14.40" pos="148.20" lane="-4.0.00_0" slope="0.00"/>
        <vehicle id="1" x="334.85" y="142.82" angle="180.03" type="DEFAULT_VEHTYPE" speed="12.46" pos="0.14" lane=":94_1_0" slope="0.00"/>
        <vehicle id="10" x="2.07" y="27.93" angle="0.00" type="DEFAULT_VEHTYPE" speed="6.21" pos="16.77" lane="15.0.00_0" slope="0.00"/>
        <vehicle id="11" x="22.03" y="-1.94" angle="90.03" type="DEFAULT_VEHTYPE" speed="4.51" pos="11.81" lane="-5.0.00_0" slope="0.00"/>
        <vehicle id="12" x="390.59" y="-0.52" angle="73.35" type="DEFAULT_VEHTYPE" speed="1.42" pos="6.52" lane="14.0.00_0" slope="0.00"/>
        <vehicle id="2" x="154.09" y="290.64" angle="180.08" type="DEFAULT_VEHTYPE" speed="9.33" pos="27.27" lane="-25.0.00_0" slope="0.00"/>
        <vehicle id="3" x="215.96" y="2.01" angle="270.00" type="DEFAULT_VEHTYPE" speed="14.75" pos="109.82" lane="6.0.00_0" slope="0.00"/>
        <vehicle id="4" x="58.45" y="330.64" angle="269.98" type="DEFAULT_VEHTYPE" speed="13.60" pos="20.99" lane="-3.0.00_0" slope="0.00"/>
        <vehicle id="5" x="163.16" y="269.12" angle="90.00" type="DEFAULT_VEHTYPE" speed="10.52" pos="18.11" lane=":167_4_0" slope="0.00"/>
        <vehicle id="6" x="332.78" y="201.64" angle="201.98" type="DEFAULT_VEHTYPE" speed="7.74" pos="6.87" lane=":139_0_0" slope="0.00"/>
        <vehicle id="7" x="334.93" y="273.95" angle="180.03" type="DEFAULT_VEHTYPE" speed="11.08" pos="8.25" lane=":111_1_0" slope="0.00"/>
        <vehicle id="8" x="396.40" y="27.10" angle="359.89" type="DEFAULT_VEHTYPE" speed="10.54" pos="17.03" lane="-8.0.00_0" slope="0.00"/>
        <vehicle id="9" x="298.07" y="199.10" angle="270.03" type="DEFAULT_VEHTYPE" speed="8.85" pos="27.63" lane="4.0.00_0" slope="0.00"/>
    </timestep>
    <timestep time="14.00">
        <vehicle id="0" x="263.73" y="195.12" angle="90.03" type="DEFAULT_VEHTYPE" speed="14.05" pos="162.25" lane="-4.0.00_0" slope="0.00"/>
        <vehicle id="1" x="334.84" y="130.75" angle="180.05" type="DEFAULT_VEHTYPE" speed="12.06" pos="12.21" lane=":94_1_0" slope="0.00"/>
        <vehicle id="10" x="2.07" y="36.57" angle="0.00" type="DEFAULT_VEHTYPE" speed="8.63" pos="25.41" lane="15.0.00_0" slope="0.00"/>
        <vehicle id="11" x="28.94" y="-1.94" angle="90.03" type="DEFAULT_VEHTYPE" speed="6.90" pos="18.72" lane="-5.0.00_0" slope="0.00"/>
        <vehicle id="12" x="393.10" y="1.28" angle="58.60" type="DEFAULT_VEHTYPE" speed="3.10" pos="9.63" lane="14.0.00_0" slope="0.00"/>
        <vehicle id="14" x="320.63" y="133.45" angle="270.01" type="DEFAULT_VEHTYPE" speed="0.00" pos="5.10" lane="12.0.00_0" slope="0.00"/>
        <vehicle id="2" x="154.08" y="284.58" angle="180.08" type="DEFAULT_VEHTYPE" speed="6.06" pos="33.33" lane="-25.0.00_0" slope="0.00"/>
        <vehicle id="3" x="201.06" y="2.01" angle="270.00" type="DEFAULT_VEHTYPE" speed="14.91" pos="124.72" lane="6.0.00_0" slope="0.00"/>
        <vehicle id="4" x="44.40" y="330.64" angle="269.98" type="DEFAULT_VEHTYPE" speed="14.05" pos="35.04" lane="-3.0.00_0" slope="0.00"/>
        <vehicle id="5" x="174.48" y="269.12" angle="89.99" type="DEFAULT_VEHTYPE" speed="11.32" pos="7.25" lane="-10.0.00_0" slope="0.00"/>
        <vehicle id="6" x="325.30" y="199.09" angle="260.34" type="DEFAULT_VEHTYPE" speed="8.16" pos="0.40" lane="4.0.00_0" slope="0.00"/>
        <vehicle id="7" x="334.92" y="261.90" angle="180.03" type="DEFAULT_VEHTYPE" speed="12.05" pos="20.30" lane=":111_1_0" slope="0.00"/>
        <vehicle id="8" x="396.40" y="39.32" angle="0.00" type="DEFAULT_VEHTYPE" speed="12.22" pos="29.25" lane="-8.0.00_0" slope="0.00"/>
        <vehicle id="9" x="287.74" y="199.11" angle="270.03" type="DEFAULT_VEHTYPE" speed="10.33" pos="37.96" lane="4.0.00_0" slope="0.00"/>
    </timestep>
    <timestep time="15.00">
        <vehicle id="0" x="277.68" y="195.11" angle="90.03" type="DEFAULT_VEHTYPE" speed="13.96" pos="176.21" lane="-4.0.00_0" slope="0.00"/>
        <vehicle id="1" x="334.83" y="118.67" angle="180.05" type="DEFAULT_VEHTYPE" speed="12.07" pos="0.78" lane="-19.0.00_0" slope="0.00"/>
        <vehicle id="10" x="2.07" y="47.23" angle="0.00" type="DEFAULT_VEHTYPE" speed="10.67" pos="36.07" lane="15.0.00_0" slope="0.00"/>
        <vehicle id="11" x="37.53" y="-1.95" angle="90.03" type="DEFAULT_VEHTYPE" speed="8.59" pos="27.31" lane="-5.0.00_0" slope="0.00"/>
        <vehicle id="12" x="395.68" y="5.22" angle="33.76" type="DEFAULT_VEHTYPE" speed="4.76" pos="14.39" lane="14.0.00_0" slope="0.00"/>
        <vehicle id="13" x="389.29" y="-1.11" angle="79.65" type="DEFAULT_VEHTYPE" speed="0.00" pos="5.10" lane="14.0.00_0" slope="0.00"/>
        <vehicle id="14" x="318.88" y="133.45" angle="270.01" type="DEFAULT_VEHTYPE" speed="1.75" pos="6.85" lane="12.0.00_0" slope="0.00"/>
        <vehicle id="15" x="16.19" y="326.63" angle="89.98" type="DEFAULT_VEHTYPE" speed="0.00" pos="5.10" lane="3.0.00_0" slope="0.00"/>
        <vehicle id="2" x="152.65" y="276.87" angle="195.51" type="DEFAULT_VEHTYPE" speed="7.98" pos="5.82" lane=":167_0_0" slope="0.00"/>
        <vehicle id="3" x="186.32" y="2.01" angle="270.00" type="DEFAULT_VEHTYPE" speed="14.73" pos="139.46" lane="6.0.00_0" slope="0.00"/>
        <vehicle id="4" x="31.36" y="330.64" angle="269.98" type="DEFAULT_VEHTYPE" speed="13.04" pos="48.08" lane="-3.0.00_0" slope="0.00"/>
        <vehicle id="5" x="185.30" y="269.12" angle="89.99" type="DEFAULT_VEHTYPE" speed="10.82" pos="18.07" lane="-10.0.00_0" slope="0.00"/>
        <vehicle id="6" x="315.66" y="199.09" angle="270.03" type="DEFAULT_VEHTYPE" speed="9.64" pos="10.04" lane="4.0.00_0" slope="0.00"/>
        <vehicle id="7" x="334.91" y="250.75" angle="180.03" type="DEFAULT_VEHTYPE" speed="11.15" pos="8.83" lane="-17.0.00_0" slope="0.00"/>
        <vehicle id="8" x="396.39" y="51.99" angle="359.89" type="DEFAULT_VEHTYPE" speed="12.67" pos="41.92" lane="-8.0.00_0" slope="0.00"/>
        <vehicle id="9" x="276.23" y="199.11" angle="270.03" type="DEFAULT_VEHTYPE" speed="11.52" pos="49.47" lane="4.0.00_0" slope="0.00"/>
    </timestep>
    <timestep time="16.00">
        <vehicle id="0" x="292.36" y="195.11" angle="90.03" type="DEFAULT_VEHTYPE" speed="14.68" pos="190.89" lane="-4.0.00_0" slope="0.00"/>
        <vehicle id="1" x="334.82" y="106.85" angle="180.03" type="DEFAULT_VEHTYPE" speed="11.82" pos="12.60" lane="-19.0.00_0" slope="0.00"/>
        <vehicle id="10" x="2.08" y="60.32" angle="0.00" type="DEFAULT_VEHTYPE" speed="13.09" pos="49.16" lane="15.0.00_0" slope="0.00"/>
        <vehicle id="11" x="47.83" y="-1.95" angle="90.03" type="DEFAULT_VEHTYPE" speed="10.31" pos="37.61" lane="-5.0.00_0" slope="0.00"/>
        <vehicle id="12" x="396.41" y="11.18" angle="3.90" type="DEFAULT_VEHTYPE" speed="6.15" pos="1.11" lane="-8.0.00_0" slope="0.00"/>
        <vehicle id="13" x="390.55" y="-0.54" angle="73.53" type="DEFAULT_VEHTYPE" speed="1.38" pos="6.48" lane="14.0.00_0" slope="0.00"/>
        <vehicle id="14" x="315.22" y="133.45" angle="270.01" type="DEFAULT_VEHTYPE" speed="3.66" pos="10.51" lane="12.0.00_0" slope="0.00"/>
        <vehicle id="15" x="18.54" y="326.63" angle="89.98" type="DEFAULT_VEHTYPE" speed="2.35" pos="7.45" lane="3.0.00_0" slope="0.00"/>
        <vehicle id="16" x="74.37" y="2.03" angle="270.03" type="DEFAULT_VEHTYPE" speed="0.00" pos="5.10" lane="5.0.00_0" slope="0.00"/>
        <vehicle id="2" x="146.76" y="273.37" angle="248.85" type="DEFAULT_VEHTYPE" speed="7.23" pos="13.05" lane=":167_0_0" slope="0.00"/>
        <vehicle id="3" x="172.26" y="2.01" angle="270.00" type="DEFAULT_VEHTYPE" speed="14.07" pos="153.52" lane="6.0.00_0" slope="0.00"/>
        <vehicle id="4" x="18.26" y="330.63" angle="269.98" type="DEFAULT_VEHTYPE" speed="13.10" pos="61.18" lane="-3.0.00_0" slope="0.00"/>
        <vehicle id="5" x="196.19" y="269.12" angle="89.99" type="DEFAULT_VEHTYPE" speed="10.88" pos="28.95" lane="-10.0.00_0" slope="0.00"/>
        <vehicle id="6" x="303.50" y="199.10" angle="270.03" type="DEFAULT_VEHTYPE" speed="12.15" pos="22.20" lane="4.0.00_0" slope="0.00"/>
        <vehicle id="7" x="334.91" y="239.58" angle="180.03" type="DEFAULT_VEHTYPE" speed="11.17" pos="20.00" lane="-17.0.00_0" slope="0.00"/>
        <vehicle id="8" x="396.39" y="65.00" angle="0.00" type="DEFAULT_VEHTYPE" speed="13.01" pos="54.93" lane="-8.0.00_0" slope="0.00"/>
        <vehicle id="9" x="264.73" y="199.12" angle="270.03" type="DEFAULT_VEHTYPE" speed="11.50" pos="60.97" lane="4.0.00_0" slope="0.00"/>
    </timestep>
    <timestep time="17.00">
        <vehicle id="0" x="306.96" y="195.10" angle="90.03" type="DEFAULT_VEHTYPE" speed="14.60" pos="205.49" lane="-4.0.00_0" slope="0.00"/>
        <vehicle id="1" x="334.82" y="94.74" angle="180.03" type="DEFAULT_VEHTYPE" speed="12.11" pos="24.71" lane="-19.0.00_0" slope="0.00"/>
        <vehicle id="10" x="2.08" y="74.35" angle="0.00" type="DEFAULT_VEHTYPE" speed="14.02" pos="63.19" lane="15.0.00_0" slope="0.00"/>
        <vehicle id="11" x="59.88" y="-1.96" angle="90.03" type="DEFAULT_VEHTYPE" speed="12.05" pos="49.66" lane="-5.0.00_0" slope="0.00"/>
        <vehicle id="12" x="396.41" y="19.42" angle="0.00" type="DEFAULT_VEHTYPE" speed="8.24" pos="9.35" lane="-8.0.00_0" slope="0.00"/>
        <vehicle id="13" x="393.35" y="1.53" angle="57.13" type="DEFAULT_VEHTYPE" speed="3.50" pos="9.98" lane="14.0.00_0" slope="0.00"/>
        <vehicle id="14" x="309.48" y="133.45" angle="270.01" type="DEFAULT_VEHTYPE" speed="5.75" pos="16.25" lane="12.0.00_0" slope="0.00"/>
        <vehicle id="15" x="23.10" y="326.63" angle="89.98" type="DEFAULT_VEHTYPE" speed="4.56" pos="12.01" lane="3.0.00_0" slope="0.00"/>
        <vehicle id="16" x="73.01" y="2.03" angle="270.03" type="DEFAULT_VEHTYPE" speed="1.36" pos="6.46" lane="5.0.00_0" slope="0.00"/>
        <vehicle id="17" x="173.24" y="326.65" angle="90.00" type="DEFAULT_VEHTYPE" speed="0.00" pos="5.10" lane="1.0.00_0" slope="0.00"/>
        <vehicle id="2" x="138.89" y="273.12" angle="269.99" type="DEFAULT_VEHTYPE" speed="7.90" pos="6.16" lane="9.0.00_0" slope="0.00"/>
        <vehicle id="3" x="157.33" y="2.01" angle="270.00" type="DEFAULT_VEHTYPE" speed="14.92" pos="168.44" lane="6.0.00_0" slope="0.00"/>
        <vehicle id="4" x="4.34" y="329.49" angle="256.70" type="DEFAULT_VEHTYPE" speed="14.20" pos="6.93" lane="13.0.00_0" slope="0.00"/>
        <vehicle id="5" x="207.56" y="269.13" angle="89.99" type="DEFAULT_VEHTYPE" speed="11.37" pos="40.32" lane="-10.0.00_0" slope="0.00"/>
        <vehicle id="6" x="290.01" y="199.11" angle="270.03" type="DEFAULT_VEHTYPE" speed="13.50" pos="35.69" lane="4.0.00_0" slope="0.00"/>
        <vehicle id="7" x="334.90" y="228.15" angle="180.03" type="DEFAULT_VEHTYPE" speed="11.43" pos="31.43" lane="-17.0.00_0" slope="0.00"/>
        <vehicle id="8" x="396.38" y="77.75" angle="359.89" type="DEFAULT_VEHTYPE" speed="12.75" pos="67.68" lane="-8.0.00_0" slope="0.00"/>
        <vehicle id="9" x="253.63" y="199.13" angle="270.03" type="DEFAULT_VEHTYPE" speed="11.10" pos="72.07" lane="4.0.00_0" slope="0.00"/>
    </timestep>
    <timestep time="18.00">
        <vehicle id="0" x="317.06" y="195.09" angle="90.03" type="DEFAULT_VEHTYPE" speed="10.10" pos="215.59" lane="-4.0.00_0" slope="0.00"/>
        <vehicle id="1" x="334.81" y="82.59" angle="180.03" type="DEFAULT_VEHTYPE" speed="12.15" pos="36.86" lane="-19.0.00_0" slope="0.00"/>
        <vehicle id="10" x="2.08" y="88.25" angle="0.00" type="DEFAULT_VEHTYPE" speed="13.91" pos="77.09" lane="15.0.00_0" slope="0.00"/>
        <vehicle id="11" x="73.53" y="-1.97" angle="90.03" type="DEFAULT_VEHTYPE" speed="13.65" pos="63.31" lane="-5.0.00_0" slope="0.00"/>
        <vehicle id="12" x="396.40" y="29.06" angle="0.00" type="DEFAULT_VEHTYPE" speed="9.63" pos="18.99" lane="-8.0.00_0" slope="0.00"/>
        <vehicle id="13" x="395.84" y="5.66" angle="31.47" type="DEFAULT_VEHTYPE" speed="4.87" pos="14.85" lane="14.0.00_0" slope="0.00"/>
        <vehicle id="14" x="302.15" y="133.45" angle="270.01" type="DEFAULT_VEHTYPE" speed="7.33" pos="23.58" lane="12.0.00_0" slope="0.00"/>
        <vehicle id="15" x="29.03" y="326.64" angle="89.98" type="DEFAULT_VEHTYPE" speed="5.93" pos="17.94" lane="3.0.00_0" slope="0.00"/>
        <vehicle id="16" x="70.15" y="2.04" angle="270.03" type="DEFAULT_VEHTYPE" speed="2.86" pos="9.32" lane="5.0.00_0" slope="0.00"/>
        <vehicle id="17" x="175.49" y="326.65" angle="90.00" type="DEFAULT_VEHTYPE" speed="2.25" pos="7.35" lane="1.0.00_0" slope="0.00"/>
        <vehicle id="18" x="3.17" y="323.51" angle="13.52" type="DEFAULT_VEHTYPE" speed="0.00" pos="5.10" lane="-13.0.00_0" slope="0.00"/>
        <vehicle id="2" x="128.47" y="273.12" angle="269.99" type="DEFAULT_VEHTYPE" speed="10.42" pos="16.58" lane="9.0.00_0" slope="0.00"/>
        <vehicle id="3" x="142.61" y="2.02" angle="270.00" type="DEFAULT_VEHTYPE" speed="14.72" pos="183.17" lane="6.0.00_0" slope="0.00"/>
        <vehicle id="4" x="-1.97" y="318.00" angle="185.02" type="DEFAULT_VEHTYPE" speed="14.16" pos="0.65" lane="-15.0.00_0" slope="0.00"/>
        <vehicle id="5" x="218.29" y="269.13" angle="89.99" type="DEFAULT_VEHTYPE" speed="10.73" pos="51.06" lane="-10.0.00_0" slope="0.00"/>
        <vehicle id="6" x="275.56" y="199.11" angle="270.03" type="DEFAULT_VEHTYPE" speed="14.44" pos="50.14" lane="4.0.00_0" slope="0.00"/>
        <vehicle id="7" x="334.90" y="216.78" angle="180.03" type="DEFAULT_VEHTYPE" speed="11.37" pos="42.80" lane="-17.0.00_0" slope="0.00"/>
        <vehicle id="8" x="396.38" y="89.79" angle="0.00" type="DEFAULT_VEHTYPE" speed="12.04" pos="79.72" lane="-8.0.00_0" slope="0.00"/>
        <vehicle id="9" x="242.87" y="199.13" angle="270.03" type="DEFAULT_VEHTYPE" speed="10.76" pos="82.83" lane="4.0.00_0" slope="0.00"/>
    </timestep>
    <timestep time="19.00">
        <vehicle id="0" x="322.74" y="195.09" angle="90.03" type="DEFAULT_VEHTYPE" speed="5.69" pos="221.27" lane="-4.0.00_0" slope="0.00"/>
        <vehicle id="1" x="334.80" y="70.27" angle="180.03" type="DEFAULT_VEHTYPE" speed="12.32" pos="49.18" lane="-19.0.00_0" slope="0.00"/>
        <vehicle id="10" x="2.07" y="102.78" angle="0.00" type="DEFAULT_VEHTYPE" speed="14.53" pos="91.62" lane="15.0.00_0" slope="0.00"/>
        <vehicle id="11" x="87.03" y="-1.97" angle="90.03" type="DEFAULT_VEHTYPE" speed="13.50" pos="7.56" lane=":195_4_0" slope="0.00"/>
        <vehicle id="12" x="396.40" y="40.56" angle="0.00" type="DEFAULT_VEHTYPE" speed="11.50" pos="30.49" lane="-8.0.00_0" slope="0.00"/>
        <vehicle id="13" x="396.41" y="12.38" angle="1.81" type="DEFAULT_VEHTYPE" speed="6.89" pos="2.31" lane="-8.0.00_0" slope="0.00"/>
        <vehicle id="14" x="293.22" y="133.45" angle="270.01" type="DEFAULT_VEHTYPE" speed="8.92" pos="32.51" lane="12.0.00_0" slope="0.00"/>
        <vehicle id="15" x="37.29" y="326.64" angle="89.98" type="DEFAULT_VEHTYPE" speed="8.26" pos="26.20" lane="3.0.00_0" slope="0.00"/>
        <vehicle id="16" x="65.83" y="2.04" angle="270.03" type="DEFAULT_VEHTYPE" speed="4.32" pos="13.64" lane="5.0.00_0" slope="0.00"/>
        <vehicle id="17" x="180.21" y="326.65" angle="90.00" type="DEFAULT_VEHTYPE" speed="4.72" pos="12.07" lane="1.0.00_0" slope="0.00"/>
        <vehicle id="18" x="4.51" y="324.95" angle="29.45" type="DEFAULT_VEHTYPE" speed="1.98" pos="7.08" lane="-13.0.00_0" slope="0.00"/>
        <vehicle id="19" x="389.29" y="-1.11" angle="79.65" type="DEFAULT_VEHTYPE" speed="0.00" pos="5.10" lane="14.0.00_0" slope="0.00"/>
        <vehicle id="2" x="116.42" y="273.11" angle="269.99" type="DEFAULT_VEHTYPE" speed="12.05" pos="28.63" lane="9.0.00_0" slope="0.00"/>
        <vehicle id="3" x="127.86" y="2.02" angle="270.00" type="DEFAULT_VEHTYPE" speed="14.75" pos="197.92" lane="6.0.00_0" slope="0.00"/>