<?xml version="1.0" encoding="UTF-8"?>

<!-- generated on Wed Aug 14 10:55:21 2019 by Eclipse SUMO Version 1.2.0
<configuration xmlns:xsi="http://www.w3.org/2001/XMLSchema-instance" xsi:noNamespaceSchemaLocation="http://sumo.dlr.de/xsd/sumoConfiguration.xsd">

    <input>
        <net-file value="Town01.net.xml"/>
        <route-files value="trips.trips.xml"/>
    </input>

    <output>
        <netstate-dump value="test.log"/>
        <fcd-output value="Town01_Car100.log"/>
    </output>

    <time>
        <begin value="0"/>
        <end value="10000"/>
    </time>

</configuration>
-->

<fcd-export xmlns:xsi="http://www.w3.org/2001/XMLSchema-instance" xsi:noNamespaceSchemaLocation="http://sumo.dlr.de/xsd/fcd_file.xsd">
    <timestep time="0.00">
        <vehicle id="0" x="392.43" y="313.66" angle="180.07" type="DEFAULT_VEHTYPE" speed="0.00" pos="5.10" lane="8.0.00_0" slope="0.00"/>
    </timestep>
    <timestep time="1.00">
        <vehicle id="0" x="392.43" y="311.25" angle="180.11" type="DEFAULT_VEHTYPE" speed="2.41" pos="7.51" lane="8.0.00_0" slope="0.00"/>
        <vehicle id="1" x="2.07" y="16.26" angle="0.00" type="DEFAULT_VEHTYPE" speed="0.00" pos="5.10" lane="15.0.00_0" slope="0.00"/>
    </timestep>
    <timestep time="2.00">
        <vehicle id="0" x="392.43" y="307.37" angle="180.00" type="DEFAULT_VEHTYPE" speed="3.87" pos="11.39" lane="8.0.00_0" slope="0.00"/>
        <vehicle id="1" x="2.07" y="17.69" angle="0.00" type="DEFAULT_VEHTYPE" speed="1.43" pos="6.53" lane="15.0.00_0" slope="0.00"/>
        <vehicle id="2" x="-1.04" y="5.80" angle="169.63" type="DEFAULT_VEHTYPE" speed="0.00" pos="5.10" lane="20.0.00_0" slope="0.00"/>
    </timestep>
    <timestep time="3.00">
        <vehicle id="0" x="392.42" y="301.07" angle="180.06" type="DEFAULT_VEHTYPE" speed="6.30" pos="17.69" lane="8.0.00_0" slope="0.00"/>
        <vehicle id="1" x="2.07" y="21.73" angle="0.00" type="DEFAULT_VEHTYPE" speed="4.03" pos="10.57" lane="15.0.00_0" slope="0.00"/>
        <vehicle id="2" x="-0.46" y="4.53" angle="164.02" type="DEFAULT_VEHTYPE" speed="1.40" pos="6.50" lane="20.0.00_0" slope="0.00"/>
        <vehicle id="3" x="338.89" y="213.13" angle="0.03" type="DEFAULT_VEHTYPE" speed="0.00" pos="5.10" lane="17.0.00_0" slope="0.00"/>
    </timestep>
    <timestep time="4.00">
        <vehicle id="0" x="392.41" y="292.65" angle="180.03" type="DEFAULT_VEHTYPE" speed="8.43" pos="26.11" lane="8.0.00_0" slope="0.00"/>
        <vehicle id="1" x="2.07" y="27.93" angle="0.00" type="DEFAULT_VEHTYPE" speed="6.21" pos="16.77" lane="15.0.00_0" slope="0.00"/>
        <vehicle id="2" x="1.44" y="1.68" angle="149.22" type="DEFAULT_VEHTYPE" speed="3.44" pos="9.94" lane="20.0.00_0" slope="0.00"/>
        <vehicle id="3" x="338.89" y="215.62" angle="0.03" type="DEFAULT_VEHTYPE" speed="2.49" pos="7.59" lane="17.0.00_0" slope="0.00"/>
        <vehicle id="4" x="139.95" y="273.12" angle="269.99" type="DEFAULT_VEHTYPE" speed="0.00" pos="5.10" lane="9.0.00_0" slope="0.00"/>
    </timestep>
    <timestep time="5.00">
        <vehicle id="0" x="392.40" y="282.43" angle="180.00" type="DEFAULT_VEHTYPE" speed="10.22" pos="36.33" lane="8.0.00_0" slope="0.00"/>
        <vehicle id="1" x="2.07" y="36.57" angle="0.00" type="DEFAULT_VEHTYPE" speed="8.63" pos="25.41" lane="15.0.00_0" slope="0.00"/>
        <vehicle id="2" x="5.58" y="-1.16" angle="124.24" type="DEFAULT_VEHTYPE" speed="5.09" pos="15.03" lane="20.0.00_0" slope="0.00"/>
        <vehicle id="3" x="338.90" y="219.98" angle="0.03" type="DEFAULT_VEHTYPE" speed="4.36" pos="11.95" lane="17.0.00_0" slope="0.00"/>
        <vehicle id="4" x="137.43" y="273.12" angle="269.99" type="DEFAULT_VEHTYPE" speed="2.52" pos="7.62" lane="9.0.00_0" slope="0.00"/>
        <vehicle id="5" x="320.63" y="133.45" angle="270.01" type="DEFAULT_VEHTYPE" speed="0.00" pos="5.10" lane="12.0.00_0" slope="0.00"/>
    </timestep>
    <timestep time="6.00">
        <vehicle id="0" x="392.38" y="269.66" angle="180.11" type="DEFAULT_VEHTYPE" speed="12.77" pos="49.10" lane="8.0.00_0" slope="0.00"/>
        <vehicle id="1" x="2.07" y="47.23" angle="0.00" type="DEFAULT_VEHTYPE" speed="10.67" pos="36.07" lane="15.0.00_0" slope="0.00"/>
        <vehicle id="2" x="12.72" y="-1.93" angle="92.13" type="DEFAULT_VEHTYPE" speed="7.23" pos="2.50" lane="-5.0.00_0" slope="0.00"/>
        <vehicle id="3" x="338.90" y="226.88" angle="0.03" type="DEFAULT_VEHTYPE" speed="6.90" pos="18.85" lane="17.0.00_0" slope="0.00"/>
        <vehicle id="4" x="133.28" y="273.12" angle="269.99" type="DEFAULT_VEHTYPE" speed="4.15" pos="11.77" lane="9.0.00_0" slope="0.00"/>
        <vehicle id="5" x="318.88" y="133.45" angle="270.01" type="DEFAULT_VEHTYPE" speed="1.75" pos="6.85" lane="12.0.00_0" slope="0.00"/>
        <vehicle id="6" x="320.59" y="273.14" angle="269.99" type="DEFAULT_VEHTYPE" speed="0.00" pos="5.10" lane="10.0.00_0" slope="0.00"/>
    </timestep>
    <timestep time="7.00">
        <vehicle id="0" x="392.36" y="255.63" angle="180.11" type="DEFAULT_VEHTYPE" speed="14.03" pos="63.13" lane="8.0.00_0" slope="0.00"/>
        <vehicle id="1" x="2.08" y="60.09" angle="0.00" type="DEFAULT_VEHTYPE" speed="12.85" pos="48.93" lane="15.0.00_0" slope="0.00"/>
        <vehicle id="2" x="22.16" y="-1.94" angle="90.03" type="DEFAULT_VEHTYPE" speed="9.44" pos="11.94" lane="-5.0.00_0" slope="0.00"/>
        <vehicle id="3" x="338.91" y="236.00" angle="0.03" type="DEFAULT_VEHTYPE" speed="9.12" pos="27.97" lane="17.0.00_0" slope="0.00"/>
        <vehicle id="4" x="127.58" y="273.12" angle="269.99" type="DEFAULT_VEHTYPE" speed="5.70" pos="17.47" lane="9.0.00_0" slope="0.00"/>
        <vehicle id="5" x="315.22" y="133.45" angle="270.01" type="DEFAULT_VEHTYPE" speed="3.66" pos="10.51" lane="12.0.00_0" slope="0.00"/>
        <vehicle id="6" x="319.15" y="273.14" angle="269.99" type="DEFAULT_VEHTYPE" speed="1.44" pos="6.54" lane="10.0.00_0" slope="0.00"/>
        <vehicle id="7" x="391.10" y="323.72" angle="123.67" type="DEFAULT_VEHTYPE" speed="0.00" pos="5.10" lane="-11.0.00_0" slope="0.00"/>
    </timestep>
    <timestep time="8.00">
        <vehicle id="0" x="392.35" y="241.91" angle="180.00" type="DEFAULT_VEHTYPE" speed="13.71" pos="76.85" lane="8.0.00_0" slope="0.00"/>
        <vehicle id="1" x="2.08" y="72.00" angle="0.00" type="DEFAULT_VEHTYPE" speed="11.91" pos="60.84" lane="15.0.00_0" slope="0.00"/>
        <vehicle id="2" x="33.90" y="-1.94" angle="90.03" type="DEFAULT_VEHTYPE" speed="11.74" pos="23.68" lane="-5.0.00_0" slope="0.00"/>
        <vehicle id="3" x="338.91" y="247.56" angle="0.03" type="DEFAULT_VEHTYPE" speed="11.55" pos="39.53" lane="17.0.00_0" slope="0.00"/>
        <vehicle id="4" x="119.35" y="273.11" angle="269.99" type="DEFAULT_VEHTYPE" speed="8.23" pos="25.70" lane="9.0.00_0" slope="0.00"/>
        <vehicle id="5" x="309.48" y="133.45" angle="270.01" type="DEFAULT_VEHTYPE" speed="5.75" pos="16.25" lane="12.0.00_0" slope="0.00"/>
        <vehicle id="6" x="316.03" y="273.14" angle="269.99" type="DEFAULT_VEHTYPE" speed="3.12" pos="9.66" lane="10.0.00_0" slope="0.00"/>
        <vehicle id="7" x="392.15" y="321.51" angle="144.07" type="DEFAULT_VEHTYPE" speed="2.47" pos="7.57" lane="-11.0.00_0" slope="0.00"/>
        <vehicle id="8" x="3.17" y="323.51" angle="13.52" type="DEFAULT_VEHTYPE" speed="0.00" pos="5.10" lane="-13.0.00_0" slope="0.00"/>
    </timestep>
    <timestep time="9.00">
        <vehicle id="0" x="392.35" y="227.34" angle="180.00" type="DEFAULT_VEHTYPE" speed="14.57" pos="91.42" lane="8.0.00_0" slope="0.00"/>
        <vehicle id="1" x="2.08" y="83.78" angle="0.00" type="DEFAULT_VEHTYPE" speed="11.79" pos="72.62" lane="15.0.00_0" slope="0.00"/>
        <vehicle id="2" x="47.74" y="-1.95" angle="90.03" type="DEFAULT_VEHTYPE" speed="13.83" pos="37.52" lane="-5.0.00_0" slope="0.00"/>
        <vehicle id="3" x="338.92" y="261.35" angle="0.03" type="DEFAULT_VEHTYPE" speed="13.80" pos="1.77" lane=":111_2_0" slope="0.00"/>
        <vehicle id="4" x="109.90" y="273.11" angle="269.99" type="DEFAULT_VEHTYPE" speed="9.44" pos="35.15" lane="9.0.00_0" slope="0.00"/>
        <vehicle id="5" x="302.15" y="133.45" angle="270.01" type="DEFAULT_VEHTYPE" speed="7.33" pos="23.58" lane="12.0.00_0" slope="0.00"/>
        <vehicle id="6" x="310.38" y="273.14" angle="269.99" type="DEFAULT_VEHTYPE" speed="5.66" pos="15.31" lane="10.0.00_0" slope="0.00"/>
        <vehicle id="7" x="392.44" y="317.65" angle="172.51" type="DEFAULT_VEHTYPE" speed="3.99" pos="1.11" lane="8.0.00_0" slope="0.00"/>
        <vehicle id="8" x="4.51" y="324.95" angle="29.45" type="DEFAULT_VEHTYPE" speed="1.98" pos="7.08" lane="-13.0.00_0" slope="0.00"/>
        <vehicle id="9" x="139.92" y="330.66" angle="270.00" type="DEFAULT_VEHTYPE" speed="0.00" pos="5.10" lane="-2.0.00_0" slope="0.00"/>
    </timestep>
    <timestep time="10.00">
        <vehicle id="0" x="392.35" y="212.95" angle="180.00" type="DEFAULT_VEHTYPE" speed="14.40" pos="105.81" lane="8.0.00_0" slope="0.00"/>
        <vehicle id="1" x="2.08" y="96.20" angle="359.97" type="DEFAULT_VEHTYPE" speed="12.41" pos="85.04" lane="15.0.00_0" slope="0.00"/>
        <vehicle id="10" x="352.89" y="-2.00" angle="90.00" type="DEFAULT_VEHTYPE" speed="0.00" pos="5.10" lane="-7.0.00_0" slope="0.00"/>
        <vehicle id="2" x="60.86" y="-1.96" angle="90.03" type="DEFAULT_VEHTYPE" speed="13.12" pos="50.64" lane="-5.0.00_0" slope="0.00"/>
        <vehicle id="3" x="338.93" y="275.81" angle="0.03" type="DEFAULT_VEHTYPE" speed="14.47" pos="16.24" lane=":111_2_0" slope="0.00"/>
        <vehicle id="4" x="104.20" y="273.11" angle="269.99" type="DEFAULT_VEHTYPE" speed="5.71" pos="40.85" lane="9.0.00_0" slope="0.00"/>
        <vehicle id="5" x="293.22" y="133.45" angle="270.01" type="DEFAULT_VEHTYPE" speed="8.92" pos="32.51" lane="12.0.00_0" slope="0.00"/>
        <vehicle id="6" x="302.76" y="273.14" angle="269.99" type="DEFAULT_VEHTYPE" speed="7.62" pos="22.93" lane="10.0.00_0" slope="0.00"/>
        <vehicle id="7" x="392.43" y="311.30" angle="180.11" type="DEFAULT_VEHTYPE" speed="6.35" pos="7.46" lane="8.0.00_0" slope="0.00"/>
        <vehicle id="8" x="8.32" y="326.55" angle="64.56" type="DEFAULT_VEHTYPE" speed="4.19" pos="11.27" lane="-13.0.00_0" slope="0.00"/>
        <vehicle id="9" x="137.93" y="330.66" angle="270.00" type="DEFAULT_VEHTYPE" speed="1.99" pos="7.09" lane="-2.0.00_0" slope="0.00"/>
    </timestep>
    <timestep time="11.00">
        <vehicle id="0" x="392.36" y="198.84" angle="180.00" type="DEFAULT_VEHTYPE" speed="14.11" pos="119.92" lane="8.0.00_0" slope="0.00"/>
        <vehicle id="1" x="2.07" y="107.98" angle="0.00" type="DEFAULT_VEHTYPE" speed="11.78" pos="96.82" lane="15.0.00_0" slope="0.00"/>
        <vehicle id="10" x="354.87" y="-2.00" angle="90.00" type="DEFAULT_VEHTYPE" speed="1.98" pos="7.08" lane="-7.0.00_0" slope="0.00"/>
        <vehicle id="11" x="15.32" y="-1.93" angle="90.03" type="DEFAULT_VEHTYPE" speed="0.00" pos="5.10" lane="-5.0.00_0" slope="0.00"/>
        <vehicle id="2" x="73.31" y="-1.97" angle="90.03" type="DEFAULT_VEHTYPE" speed="12.45" pos="63.09" lane="-5.0.00_0" slope="0.00"/>
        <vehicle id="3" x="338.93" y="290.20" angle="0.03" type="DEFAULT_VEHTYPE" speed="14.39" pos="8.01" lane="16.0.00_0" slope="0.00"/>
        <vehicle id="4" x="96.67" y="272.45" angle="262.37" type="DEFAULT_VEHTYPE" speed="7.57" pos="4.82" lane=":184_3_0" slope="0.00"/>
        <vehicle id="5" x="282.21" y="133.45" angle="270.01" type="DEFAULT_VEHTYPE" speed="11.01" pos="43.52" lane="12.0.00_0" slope="0.00"/>
        <vehicle id="6" x="293.31" y="273.14" angle="269.99" type="DEFAULT_VEHTYPE" speed="9.45" pos="32.38" lane="10.0.00_0" slope="0.00"/>
        <vehicle id="7" x="392.42" y="303.50" angle="180.11" type="DEFAULT_VEHTYPE" speed="7.80" pos="15.26" lane="8.0.00_0" slope="0.00"/>
        <vehicle id="8" x="13.74" y="326.63" angle="89.65" type="DEFAULT_VEHTYPE" speed="5.52" pos="2.65" lane="3.0.00_0" slope="0.00"/>
        <vehicle id="9" x="134.08" y="330.66" angle="270.00" type="DEFAULT_VEHTYPE" speed="3.84" pos="10.93" lane="-2.0.00_0" slope="0.00"/>
    </timestep>
    <timestep time="12.00">
        <vehicle id="0" x="392.36" y="184.25" angle="180.00" type="DEFAULT_VEHTYPE" speed="14.59" pos="134.51" lane="8.0.00_0" slope="0.00"/>
        <vehicle id="1" x="2.06" y="120.84" angle="359.92" type="DEFAULT_VEHTYPE" speed="12.86" pos="109.68" lane="15.0.00_0" slope="0.00"/>
        <vehicle id="10" x="358.54" y="-2.00" angle="90.00" type="DEFAULT_VEHTYPE" speed="3.67" pos="10.75" lane="-7.0.00_0" slope="0.00"/>
        <vehicle id="11" x="17.31" y="-1.93" angle="90.03" type="DEFAULT_VEHTYPE" speed="1.99" pos="7.09" lane="-5.0.00_0" slope="0.00"/>
        <vehicle id="12" x="320.59" y="330.62" angle="270.00" type="DEFAULT_VEHTYPE" speed="0.00" pos="5.10" lane="-1.0.00_0" slope="0.00"/>
        <vehicle id="2" x="81.61" y="-1.66" angle="86.44" type="DEFAULT_VEHTYPE" speed="8.32" pos="2.16" lane=":195_5_0" slope="0.00"/>
        <vehicle id="3" x="338.94" y="303.25" angle="0.03" type="DEFAULT_VEHTYPE" speed="13.05" pos="21.06" lane="16.0.00_0" slope="0.00"/>
        <vehicle id="4" x="89.47" y="266.35" angle="215.86" type="DEFAULT_VEHTYPE" speed="9.87" pos="14.69" lane=":184_3_0" slope="0.00"/>
        <vehicle id="5" x="271.53" y="133.45" angle="270.01" type="DEFAULT_VEHTYPE" speed="10.68" pos="54.20" lane="12.0.00_0" slope="0.00"/>
        <vehicle id="6" x="281.31" y="273.13" angle="269.99" type="DEFAULT_VEHTYPE" speed="11.99" pos="44.38" lane="10.0.00_0" slope="0.00"/>
        <vehicle id="7" x="392.41" y="293.15" angle="180.06" type="DEFAULT_VEHTYPE" speed="10.35" pos="25.61" lane="8.0.00_0" slope="0.00"/>
        <vehicle id="8" x="20.64" y="326.63" angle="89.98" type="DEFAULT_VEHTYPE" speed="6.90" pos="9.55" lane="3.0.00_0" slope="0.00"/>
        <vehicle id="9" x="127.69" y="330.66" angle="270.00" type="DEFAULT_VEHTYPE" speed="6.39" pos="17.33" lane="-2.0.00_0" slope="0.00"/>
    </timestep>
    <timestep time="13.00">
        <vehicle id="0" x="392.36" y="170.51" angle="180.00" type="DEFAULT_VEHTYPE" speed="13.73" pos="148.25" lane="8.0.00_0" slope="0.00"/>
        <vehicle id="1" x="2.06" y="133.24" angle="0.00" type="DEFAULT_VEHTYPE" speed="12.39" pos="122.08" lane="15.0.00_0" slope="0.00"/>
        <vehicle id="10" x="363.53" y="-2.00" angle="90.00" type="DEFAULT_VEHTYPE" speed="5.00" pos="15.74" lane="-7.0.00_0" slope="0.00"/>
        <vehicle id="11" x="21.16" y="-1.94" angle="90.03" type="DEFAULT_VEHTYPE" speed="3.84" pos="10.94" lane="-5.0.00_0" slope="0.00"/>
        <vehicle id="12" x="318.86" y="330.63" angle="270.06" type="DEFAULT_VEHTYPE" speed="1.73" pos="6.83" lane="-1.0.00_0" slope="0.00"/>
        <vehicle id="13" x="338.77" y="16.26" angle="0.03" type="DEFAULT_VEHTYPE" speed="0.00" pos="5.10" lane="19.0.00_0" slope="0.00"/>
        <vehicle id="2" x="86.42" y="-0.37" angle="74.92" type="DEFAULT_VEHTYPE" speed="5.06" pos="7.22" lane=":195_5_0" slope="0.00"/>
        <vehicle id="3" x="338.95" y="311.80" angle="0.03" type="DEFAULT_VEHTYPE" speed="8.55" pos="29.61" lane="16.0.00_0" slope="0.00"/>
        <vehicle id="4" x="88.44" y="256.63" angle="181.94" type="DEFAULT_VEHTYPE" speed="9.84" pos="3.83" lane="-22.0.00_0" slope="0.00"/>
        <vehicle id="5" x="260.50" y="133.46" angle="270.01" type="DEFAULT_VEHTYPE" speed="11.03" pos="65.23" lane="12.0.00_0" slope="0.00"/>
        <vehicle id="6" x="267.75" y="273.13" angle="269.99" type="DEFAULT_VEHTYPE" speed="13.56" pos="57.94" lane="10.0.00_0" slope="0.00"/>
        <vehicle id="7" x="392.40" y="281.38" angle="180.00" type="DEFAULT_VEHTYPE" speed="11.76" pos="37.38" lane="8.0.00_0" slope="0.00"/>
        <vehicle id="8" x="30.05" y="326.64" angle="89.98" type="DEFAULT_VEHTYPE" speed="9.42" pos="18.96" lane="3.0.00_0" slope="0.00"/>
        <vehicle id="9" x="119.88" y="330.66" angle="270.00" type="DEFAULT_VEHTYPE" speed="7.81" pos="25.13" lane="-2.0.00_0" slope="0.00"/>
    </timestep>
    <timestep time="14.00">
        <vehicle id="0" x="392.37" y="156.89" angle="179.90" type="DEFAULT_VEHTYPE" speed="13.62" pos="161.87" lane="8.0.00_0" slope="0.00"/>
        <vehicle id="1" x="2.05" y="145.62" angle="0.00" type="DEFAULT_VEHTYPE" speed="12.38" pos="134.46" lane="15.0.00_0" slope="0.00"/>
        <vehicle id="10" x="371.04" y="-2.00" angle="90.00" type="DEFAULT_VEHTYPE" speed="7.51" pos="23.25" lane="-7.0.00_0" slope="0.00"/>
        <vehicle id="11" x="26.42" y="-1.94" angle="90.03" type="DEFAULT_VEHTYPE" speed="5.26" pos="16.20" lane="-5.0.00_0" slope="0.00"/>
        <vehicle id="12" x="315.63" y="330.63" angle="270.11" type="DEFAULT_VEHTYPE" speed="3.23" pos="10.06" lane="-1.0.00_0" slope="0.00"/>
        <vehicle id="13" x="338.77" y="18.77" angle="0.03" type="DEFAULT_VEHTYPE" speed="2.51" pos="7.61" lane="19.0.00_0" slope="0.00"/>
        <vehicle id="14" x="139.92" y="330.66" angle="270.00" type="DEFAULT_VEHTYPE" speed="0.00" pos="5.10" lane="-2.0.00_0" slope="0.00"/>
        <vehicle id="2" x="91.25" y="4.78" angle="36.10" type="DEFAULT_VEHTYPE" speed="7.27" pos="6.51" lane=":195_6_0" slope="0.00"/>
        <vehicle id="3" x="338.95" y="316.75" angle="0.03" type="DEFAULT_VEHTYPE" speed="4.94" pos="34.56" lane="16.0.00_0" slope="0.00"/>
        <vehicle id="4" x="88.44" y="244.38" angle="179.99" type="DEFAULT_VEHTYPE" speed="12.25" pos="16.08" lane="-22.0.00_0" slope="0.00"/>
        <vehicle id="5" x="249.39" y="133.46" angle="270.01" type="DEFAULT_VEHTYPE" speed="11.11" pos="76.34" lane="12.0.00_0" slope="0.00"/>
        <vehicle id="6" x="253.55" y="273.13" angle="269.99" type="DEFAULT_VEHTYPE" speed="14.20" pos="72.14" lane="10.0.00_0" slope="0.00"/>
        <vehicle id="7" x="392.38" y="269.55" angle="180.11" type="DEFAULT_VEHTYPE" speed="11.83" pos="49.21" lane="8.0.00_0" slope="0.00"/>
        <vehicle id="8" x="41.82" y="326.64" angle="89.98" type="DEFAULT_VEHTYPE" speed="11.77" pos="30.73" lane="3.0.00_0" slope="0.00"/>
        <vehicle id="9" x="110.43" y="330.66" angle="270.00" type="DEFAULT_VEHTYPE" speed="9.45" pos="34.59" lane="-2.0.00_0" slope="0.00"/>
    </timestep>
    <timestep time="15.00">
        <vehicle id="0" x="392.37" y="142.68" angle="180.00" type="DEFAULT_VEHTYPE" speed="14.21" pos="176.08" lane="8.0.00_0" slope="0.00"/>
        <vehicle id="1" x="2.04" y="157.82" angle="359.89" type="DEFAULT_VEHTYPE" speed="12.20" pos="146.66" lane="15.0.00_0" slope="0.00"/>
        <vehicle id="10" x="380.62" y="-2.00" angle="90.00" type="DEFAULT_VEHTYPE" speed="9.58" pos="32.83" lane="-7.0.00_0" slope="0.00"/>
        <vehicle id="11" x="33.03" y="-1.94" angle="90.03" type="DEFAULT_VEHTYPE" speed="6.61" pos="22.81" lane="-5.0.00_0" slope="0.00"/>
        <vehicle id="12" x="309.81" y="330.63" angle="270.00" type="DEFAULT_VEHTYPE" speed="5.82" pos="15.88" lane="-1.0.00_0" slope="0.00"/>
        <vehicle id="13" x="338.78" y="23.43" angle="0.03" type="DEFAULT_VEHTYPE" speed="4.66" pos="12.27" lane="19.0.00_0" slope="0.00"/>
        <vehicle id="14" x="137.75" y="330.66" angle="270.00" type="DEFAULT_VEHTYPE" speed="2.17" pos="7.27" lane="-2.0.00_0" slope="0.00"/>
        <vehicle id="15" x="92.45" y="213.87" angle="359.99" type="DEFAULT_VEHTYPE" speed="0.00" pos="5.10" lane="22.0.00_0" slope="0.00"/>
        <vehicle id="2" x="92.48" y="14.41" angle="3.01" type="DEFAULT_VEHTYPE" speed="9.80" pos="3.10" lane="24.0.00_0" slope="0.00"/>
        <vehicle id="3" x="337.74" y="324.04" angle="348.30" type="DEFAULT_VEHTYPE" speed="7.46" pos="6.40" lane=":43_3_0" slope="0.00"/>
        <vehicle id="4" x="88.45" y="230.51" angle="179.99" type="DEFAULT_VEHTYPE" speed="13.87" pos="29.94" lane="-22.0.00_0" slope="0.00"/>
        <vehicle id="5" x="238.48" y="133.46" angle="270.01" type="DEFAULT_VEHTYPE" speed="10.91" pos="87.25" lane="12.0.00_0" slope="0.00"/>
        <vehicle id="6" x="239.73" y="273.13" angle="269.99" type="DEFAULT_VEHTYPE" speed="13.82" pos="85.96" lane="10.0.00_0" slope="0.00"/>
        <vehicle id="7" x="392.37" y="257.82" angle="180.00" type="DEFAULT_VEHTYPE" speed="11.73" pos="60.94" lane="8.0.00_0" slope="0.00"/>
        <vehicle id="8" x="54.46" y="326.64" angle="89.98" type="DEFAULT_VEHTYPE" speed="12.64" pos="43.37" lane="3.0.00_0" slope="0.00"/>
        <vehicle id="9" x="98.95" y="330.66" angle="269.98" type="DEFAULT_VEHTYPE" speed="11.48" pos="3.80" lane=":77_0_0" slope="0.00"/>
    </timestep>
    <timestep time="16.00">
        <vehicle id="0" x="392.37" y="128.75" angle="180.00" type="DEFAULT_VEHTYPE" speed="13.93" pos="190.01" lane="8.0.00_0" slope="0.00"/>
        <vehicle id="1" x="2.04" y="169.93" angle="0.00" type="DEFAULT_VEHTYPE" speed="12.11" pos="158.77" lane="15.0.00_0" slope="0.00"/>
        <vehicle id="10" x="391.33" y="-0.07" angle="69.06" type="DEFAULT_VEHTYPE" speed="11.09" pos="7.40" lane="14.0.00_0" slope="0.00"/>
        <vehicle id="11" x="41.96" y="-1.95" angle="90.03" type="DEFAULT_VEHTYPE" speed="8.93" pos="31.74" lane="-5.0.00_0" slope="0.00"/>
        <vehicle id="12" x="301.59" y="330.63" angle="270.00" type="DEFAULT_VEHTYPE" speed="8.22" pos="24.10" lane="-1.0.00_0" slope="0.00"/>
        <vehicle id="13" x="338.78" y="29.46" angle="0.03" type="DEFAULT_VEHTYPE" speed="6.04" pos="18.30" lane="19.0.00_0" slope="0.00"/>
        <vehicle id="14" x="133.63" y="330.66" angle="270.00" type="DEFAULT_VEHTYPE" speed="4.11" pos="11.38" lane="-2.0.00_0" slope="0.00"/>
        <vehicle id="15" x="92.45" y="215.59" angle="359.99" type="DEFAULT_VEHTYPE" speed="1.71" pos="6.81" lane="22.0.00_0" slope="0.00"/>
        <vehicle id="16" x="-1.04" y="5.80" angle="169.63" type="DEFAULT_VEHTYPE" speed="0.00" pos="5.10" lane="20.0.00_0" slope="0.00"/>
        <vehicle id="2" x="92.48" y="26.17" angle="359.99" type="DEFAULT_VEHTYPE" speed="11.76" pos="14.86" lane="24.0.00_0" slope="0.00"/>
        <vehicle id="3" x="330.25" y="329.99" angle="294.56" type="DEFAULT_VEHTYPE" speed="10.02" pos="16.42" lane=":43_3_0" slope="0.00"/>
        <vehicle id="4" x="88.45" y="216.94" angle="179.99" type="DEFAULT_VEHTYPE" speed="13.57" pos="43.52" lane="-22.0.00_0" slope="0.00"/>
        <vehicle id="5" x="227.62" y="133.46" angle="270.01" type="DEFAULT_VEHTYPE" speed="10.87" pos="98.11" lane="12.0.00_0" slope="0.00"/>
        <vehicle id="6" x="226.17" y="273.13" angle="269.99" type="DEFAULT_VEHTYPE" speed="13.56" pos="99.52" lane="10.0.00_0" slope="0.00"/>
        <vehicle id="7" x="392.35" y="246.76" angle="180.11" type="DEFAULT_VEHTYPE" speed="11.06" pos="72.00" lane="8.0.00_0" slope="0.00"/>
        <vehicle id="8" x="66.25" y="326.65" angle="89.98" type="DEFAULT_VEHTYPE" speed="11.79" pos="55.16" lane="3.0.00_0" slope="0.00"/>
        <vehicle id="9" x="87.33" y="330.65" angle="269.98" type="DEFAULT_VEHTYPE" speed="11.62" pos="15.43" lane=":77_0_0" slope="0.00"/>
    </timestep>
    <timestep time="17.00">
        <vehicle id="0" x="392.37" y="114.82" angle="180.00" type="DEFAULT_VEHTYPE" speed="13.93" pos="203.94" lane="8.0.00_0" slope="0.00"/>
        <vehicle id="1" x="2.03" y="182.93" angle="0.00" type="DEFAULT_VEHTYPE" speed="13.00" pos="171.77" lane="15.0.00_0" slope="0.00"/>
        <vehicle id="11" x="52.78" y="-1.95" angle="90.03" type="DEFAULT_VEHTYPE" speed="10.82" pos="42.56" lane="-5.0.00_0" slope="0.00"/>
        <vehicle id="12" x="291.08" y="330.64" angle="270.00" type="DEFAULT_VEHTYPE" speed="10.51" pos="34.61" lane="-1.0.00_0" slope="0.00"/>
        <vehicle id="13" x="338.78" y="37.88" angle="0.03" type="DEFAULT_VEHTYPE" speed="8.42" pos="26.72" lane="19.0.00_0" slope="0.00"/>
        <vehicle id="14" x="127.27" y="330.66" angle="270.00" type="DEFAULT_VEHTYPE" speed="6.36" pos="17.75" lane="-2.0.00_0" slope="0.00"/>
        <vehicle id="15" x="92.45" y="219.49" angle="359.99" type="DEFAULT_VEHTYPE" speed="3.91" pos="10.72" lane="22.0.00_0" slope="0.00"/>
        <vehicle id="16" x="-0.01" y="3.66" angle="159.57" type="DEFAULT_VEHTYPE" speed="2.38" pos="7.48" lane="20.0.00_0" slope="0.00"/>
        <vehicle id="17" x="334.87" y="179.84" angle="180.03" type="DEFAULT_VEHTYPE" speed="0.00" pos="5.10" lane="-18.0.00_0" slope="0.00"/>
        <vehicle id="2" x="92.47" y="40.09" angle="359.99" type="DEFAULT_VEHTYPE" speed="13.92" pos="28.78" lane="24.0.00_0" slope="0.00"/>
        <vehicle id="3" x="320.68" y="330.62" angle="270.00" type="DEFAULT_VEHTYPE" speed="9.62" pos="5.01" lane="-1.0.00_0" slope="0.00"/>
        <vehicle id="4" x="88.59" y="207.76" angle="178.40" type="DEFAULT_VEHTYPE" speed="9.19" pos="1.02" lane=":156_1_0" slope="0.00"/>
        <vehicle id="5" x="216.69" y="133.46" angle="270.01" type="DEFAULT_VEHTYPE" speed="10.93" pos="109.04" lane="12.0.00_0" slope="0.00"/>
        <vehicle id="6" x="211.65" y="273.13" angle="269.99" type="DEFAULT_VEHTYPE" speed="14.52" pos="114.03" lane="10.0.00_0" slope="0.00"/>
        <vehicle id="7" x="392.35" y="234.63" angle="180.00" type="DEFAULT_VEHTYPE" speed="12.13" pos="84.13" lane="8.0.00_0" slope="0.00"/>
        <vehicle id="8" x="79.01" y="326.65" angle="89.98" type="DEFAULT_VEHTYPE" speed="12.76" pos="67.92" lane="3.0.00_0" slope="0.00"/>
        <vehicle id="9" x="75.57" y="330.65" angle="269.98" type="DEFAULT_VEHTYPE" speed="11.77" pos="3.87" lane="-3.0.00_0" slope="0.00"/>
    </timestep>
    <timestep time="18.00">
        <vehicle id="0" x="392.38" y="100.81" angle="180.00" type="DEFAULT_VEHTYPE" speed="14.02" pos="217.95" lane="8.0.00_0" slope="0.00"/>
        <vehicle id="1" x="2.02" y="195.63" angle="359.89" type="DEFAULT_VEHTYPE" speed="12.71" pos="184.47" lane="15.0.00_0" slope="0.00"/>
        <vehicle id="11" x="65.80" y="-1.96" angle="90.03" type="DEFAULT_VEHTYPE" speed="13.02" pos="55.58" lane="-5.0.00_0" slope="0.00"/>
        <vehicle id="12" x="278.16" y="330.64" angle="270.00" type="DEFAULT_VEHTYPE" speed="12.93" pos="47.53" lane="-1.0.00_0" slope="0.00"/>
        <vehicle id="13" x="338.79" y="47.85" angle="0.03" type="DEFAULT_VEHTYPE" speed="9.96" pos="36.69" lane="19.0.00_0" slope="0.00"/>
        <vehicle id="14" x="119.18" y="330.66" angle="270.00" type="DEFAULT_VEHTYPE" speed="8.09" pos="25.84" lane="-2.0.00_0" slope="0.00"/>
        <vehicle id="15" x="92.45" y="224.85" angle="359.99" type="DEFAULT_VEHTYPE" speed="5.36" pos="16.08" lane="22.0.00_0" slope="0.00"/>
        <vehicle id="16" x="2.59" y="0.53" angle="142.42" type="DEFAULT_VEHTYPE" speed="4.09" pos="11.57" lane="20.0.00_0" slope="0.00"/>
        <vehicle id="17" x="334.87" y="178.13" angle="180.03" type="DEFAULT_VEHTYPE" speed="1.71" pos="6.81" lane="-18.0.00_0" slope="0.00"/>
        <vehicle id="18" x="106.55" y="269.11" angle="89.99" type="DEFAULT_VEHTYPE" speed="0.00" pos="5.10" lane="-9.0.00_0" slope="0.00"/>
        <vehicle id="2" x="92.47" y="52.90" angle="359.99" type="DEFAULT_VEHTYPE" speed="12.82" pos="41.60" lane="24.0.00_0" slope="0.00"/>
        <vehicle id="3" x="309.02" y="330.63" angle="270.00" type="DEFAULT_VEHTYPE" speed="11.66" pos="16.67" lane="-1.0.00_0" slope="0.00"/>
        <vehicle id="4" x="89.61" y="202.24" angle="169.18" type="DEFAULT_VEHTYPE" speed="5.66" pos="6.68" lane=":156_1_0" slope="0.00"/>
        <vehicle id="5" x="206.34" y="133.46" angle="270.01" type="DEFAULT_VEHTYPE" speed="10.35" pos="119.39" lane="12.0.00_0" slope="0.00"/>
        <vehicle id="6" x="198.00" y="273.12" angle="269.99" type="DEFAULT_VEHTYPE" speed="13.65" pos="127.68" lane="10.0.00_0" slope="0.00"/>
        <vehicle id="7" x="392.35" y="223.60" angle="180.00" type="DEFAULT_VEHTYPE" speed="11.03" pos="95.16" lane="8.0.00_0" slope="0.00"/>
        <vehicle id="8" x="91.14" y="326.66" angle="89.98" type="DEFAULT_VEHTYPE" speed="12.13" pos="11.70" lane=":77_5_0" slope="0.00"/>
        <vehicle id="9" x="64.37" y="330.65" angle="269.98" type="DEFAULT_VEHTYPE" speed="11.19" pos="15.07" lane="-3.0.00_0" slope="0.00"/>
    </timestep>
    <timestep time="19.00">
        <vehicle id="0" x="392.38" y="87.22" angle="180.00" type="DEFAULT_VEHTYPE" speed="13.59" pos="231.54" lane="8.0.00_0" slope="0.00"/>
        <vehicle id="1" x="2.02" y="207.82" angle="0.00" type="DEFAULT_VEHTYPE" speed="12.18" pos="196.66" lane="15.0.00_0" slope="0.00"/>
        <vehicle id="11" x="77.13" y="-1.97" angle="90.03" type="DEFAULT_VEHTYPE" speed="11.33" pos="66.91" lane="-5.0.00_0" slope="0.00"/>
        <vehicle id="12" x="264.25" y="330.64" angle="270.00" type="DEFAULT_VEHTYPE" speed="13.91" pos="61.44" lane="-1.0.00_0" slope="0.00"/>
        <vehicle id="13" x="338.80" y="59.61" angle="0.03" type="DEFAULT_VEHTYPE" speed="11.76" pos="48.45" lane="19.0.00_0" slope="0.00"/>
        <vehicle id="14" x="109.24" y="330.66" angle="270.00" type="DEFAULT_VEHTYPE" speed="9.93" pos="35.77" lane="-2.0.00_0" slope="0.00"/>
        <vehicle id="15" x="92.45" y="231.63" angle="359.99" type="DEFAULT_VEHTYPE" speed="6.78" pos="22.86" lane="22.0.00_0" slope="0.00"/>
        <vehicle id="16" x="7.53" y="-1.72" angle="113.54" type="DEFAULT_VEHTYPE" speed="5.50" pos="17.07" lane="20.0.00_0" slope="0.00"/>
        <vehicle id="17" x="334.86" y="173.89" angle="180.03" type="DEFAULT_VEHTYPE" speed="4.24" pos="11.05" lane="-18.0.00_0" slope="0.00"/>
        <vehicle id="18" x="108.10" y="269.11" angle="89.99" type="DEFAULT_VEHTYPE" speed="1.55" pos="6.65" lane="-9.0.00_0" slope="0.00"/>
        <vehicle id="19" x="154.12" y="312.80" angle="180.08" type="DEFAULT_VEHTYPE" speed="0.00" pos="5.10" lane="-25.0.00_0" slope="0.00"/>
        <vehicle id="2" x="92.47" y="66.72" angle="359.99" type="DEFAULT_VEHTYPE" speed="13.82" pos="55.42" lane="24.0.00_0" slope="0.00"/>
        <vehicle id="3" x="295.32" y="330.64" angle="270.11" type="DEFAULT_VEHTYPE" speed="13.70" pos="30.37" lane="-1.0.00_0" slope="0.00"/>
        <vehicle id="4" x="94.08" y="197.11" angle="134.35" type="DEFAULT_VEHTYPE" speed="7.00" pos="5.32" lane=":156_6_0" slope="0.00"/>
        <vehicle id="5" x="196.07" y="133.46" angle="270.01" type="DEFAULT_VEHTYPE" speed="10.27" pos="129.66" lane="12.0.00_0" slope="0.00"/>